<LesHouchesEvents version="3.0">
<header>
<!--
#*********************************************************************
#                                                                    *
#                        MadGraph5_aMC@NLO                           *
#                                                                    *
#                           Going Beyond                             *
#                                                                    *
#                   http://madgraph.hep.uiuc.edu                     *
#                   http://madgraph.phys.ucl.ac.be                   *
#                   http://amcatnlo.cern.ch                          *
#                                                                    *
#                     The MadGraph5_aMC@NLO team                     *
#                                                                    *
#....................................................................*
#                                                                    *
# This file contains all the information necessary to reproduce      *
# the events generated:                                              *
#                                                                    *
# 1. software version                                                *
# 2. proc_card          : code generation info including model       *
# 3. param_card         : model primary parameters in the LH format  *
# 4. run_card           : running parameters (collider and cuts)     *
# 5. pythia_card        : present only if pythia has been run        *
# 6. pgs_card           : present only if pgs has been run           *
# 7. delphes_cards      : present only if delphes has been run       *
#                                                                    *
#                                                                    *
#*********************************************************************
-->
<MGVersion>
2.9.20
</MGVersion>
<MG5ProcCard>
<![CDATA[
#************************************************************
#*                     MadGraph5_aMC@NLO                    *
#*                                                          *
#*                *                       *                 *
#*                  *        * *        *                   *
#*                    * * * * 5 * * * *                     *
#*                  *        * *        *                   *
#*                *                       *                 *
#*                                                          *
#*                                                          *
#*         VERSION 2.9.20                2024-06-17         *
#*                                                          *
#*    The MadGraph5_aMC@NLO Development Team - Find us at   *
#*    https://server06.fynu.ucl.ac.be/projects/madgraph     *
#*                                                          *
#************************************************************
#*                                                          *
#*               Command File for MadGraph5_aMC@NLO         *
#*                                                          *
#*     run as ./bin/mg5_aMC  filename                       *
#*                                                          *
#************************************************************
set group_subprocesses Auto
set ignore_six_quark_processes False
set low_mem_multicore_nlo_generation False
set complex_mass_scheme False
set gauge unitary
set loop_optimized_output True
set loop_color_flows False
set max_npoint_for_channel 0
set default_unset_couplings 99
set max_t_for_channel 99
set zerowidth_tchannel True
import model sm
define p = g u c d s u~ c~ d~ s~
define j = g u c d s u~ c~ d~ s~
define l+ = e+ mu+
define l- = e- mu-
define vl = ve vm vt
define vl~ = ve~ vm~ vt~
convert model /home/joniojjsj/Madgraph/MG5_aMC_v2_9_20/models/LWSM200D\
nR/
import model /home/joniojjsj/Madgraph/MG5_aMC_v2_9_20/models/LWSM200Dn\
R
generate p p > lwe+ lwe-, lwe+ > e+ Z, lwe- > e- Z
output JJSJtest
]]>
</MG5ProcCard>
<MGProcCard>
#*********************************************************************
#                        MadGraph/MadEvent                           *
#                   http://madgraph.hep.uiuc.edu                     *
#                                                                    *
#                          proc_card.dat                             *
#*********************************************************************
#                                                                    *
#            This Files is generated by MADGRAPH 5                   *
#                                                                    *
# WARNING: This Files is generated for MADEVENT (compatibility issue)*
#          This files is NOT a valid MG4 proc_card.dat               *
#          Running this in MG4 will NEVER reproduce the result of MG5*
#                                                                    *
#*********************************************************************
#*********************************************************************
# Process(es) requested : mg2 input                                  *
#*********************************************************************
# Begin PROCESS # This is TAG. Do not modify this line
p p > lwe+ lwe- , lwe+ > e+ Z , lwe- > e- Z           #Process
# Be carefull the coupling are here in MG5 convention
          
end_coup           # End the couplings input

done               # this tells MG there are no more procs
# End PROCESS  # This is TAG. Do not modify this line
#*********************************************************************
# Model information                                                  *
#*********************************************************************
# Begin MODEL  # This is TAG. Do not modify this line
LWSM200DnR
# End   MODEL  # This is TAG. Do not modify this line
#*********************************************************************
# Start multiparticle definitions                                    *
#*********************************************************************
# Begin MULTIPARTICLES # This is TAG. Do not modify this line

# End  MULTIPARTICLES # This is TAG. Do not modify this line
</MGProcCard>
<MGRunCard>
<![CDATA[
#*********************************************************************
#                       MadGraph5_aMC@NLO                            *
#                                                                    *
#                     run_card.dat MadEvent                          *
#                                                                    *
#  This file is used to set the parameters of the run.               *
#                                                                    *
#  Some notation/conventions:                                        *
#                                                                    *
#   Lines starting with a '# ' are info or comments                  *
#                                                                    *
#   mind the format:   value    = variable     ! comment             *
#                                                                    *
#   To display more options, you can type the command:               *
#      update to_full                                                *
#*********************************************************************
#                                                                    
#*********************************************************************
# Tag name for the run (one word)                                    *
#*********************************************************************
  tag_1     = run_tag ! name of the run 
#*********************************************************************
# Number of events and rnd seed                                      *
# Warning: Do not generate more than 1M events in a single run       *
#*********************************************************************
  100 = nevents ! Number of unweighted events requested 
 21 = iseed   ! rnd seed (0=assigned automatically=default))
#*********************************************************************
# Collider type and energy                                           *
# lpp: 0=No PDF, 1=proton, -1=antiproton, 2=photon from proton,      *
#                3=photon from electron, 4=photon from muon          *
#*********************************************************************
     1        = lpp1    ! beam 1 type 
     1        = lpp2    ! beam 2 type
     6500.0     = ebeam1  ! beam 1 total energy in GeV
     6500.0     = ebeam2  ! beam 2 total energy in GeV
# To see polarised beam options: type "update beam_pol"

#*********************************************************************
# PDF CHOICE: this automatically fixes also alpha_s and its evol.    *
#*********************************************************************
     nn23lo1    = pdlabel     ! PDF set                                     
     230000    = lhaid     ! if pdlabel=lhapdf, this is the lhapdf number
# To see heavy ion options: type "update ion_pdf"
#*********************************************************************
# Renormalization and factorization scales                           *
#*********************************************************************
 False = fixed_ren_scale  ! if .true. use fixed ren scale
 False        = fixed_fac_scale  ! if .true. use fixed fac scale
 91.188  = scale            ! fixed ren scale
 91.188  = dsqrt_q2fact1    ! fixed fact scale for pdf1
 91.188  = dsqrt_q2fact2    ! fixed fact scale for pdf2
 -1 = dynamical_scale_choice ! Choose one of the preselected dynamical choices
 1.0  = scalefact        ! scale factor for event-by-event scales
#*********************************************************************
# Type and output format
#*********************************************************************
  False     = gridpack  !True = setting up the grid pack
  -1.0 = time_of_flight ! threshold (in mm) below which the invariant livetime is not written (-1 means not written)
  average =  event_norm       ! average/sum. Normalization of the weight in the LHEF
# To see MLM/CKKW  merging options: type "update MLM" or "update CKKW"

#*********************************************************************
#
#*********************************************************************
# Phase-Space Optimization strategy (basic options)
#*********************************************************************
   0  = nhel          ! using helicities importance sampling or not.
                             ! 0: sum over helicity, 1: importance sampling
   2  = sde_strategy  ! default integration strategy (hep-ph/2021.00773)
                             ! 1 is old strategy (using amp square)
			     ! 2 is new strategy (using only the denominator)
# To see advanced option for Phase-Space optimization: type "update psoptim"			     
#*********************************************************************
# Generation bias, check the wiki page below for more information:   *
#  'cp3.irmp.ucl.ac.be/projects/madgraph/wiki/LOEventGenerationBias' *
#*********************************************************************
 None = bias_module  ! Bias type of bias, [None, ptj_bias, -custom_folder-]
 {} = bias_parameters ! Specifies the parameters of the module.
#
#*******************************                                                 
# Parton level cuts definition *
#*******************************                                     
#                                                                    
#
#*********************************************************************
# BW cutoff (M+/-bwcutoff*Gamma) ! Define on/off-shell for "$" and decay  
#*********************************************************************
  15.0  = bwcutoff      ! (M+/-bwcutoff*Gamma)
 #*********************************************************************
 # Apply pt/E/eta/dr/mij/kt_durham cuts on decay products or not
 # (note that etmiss/ptll/ptheavy/ht/sorted cuts always apply)
 #*********************************************************************
   False  = cut_decays    ! Cut decay products 
#*********************************************************************
# Standard Cuts                                                      *
#*********************************************************************
# Minimum and maximum pt's (for max, -1 means no cut)                *
#*********************************************************************
 10.0  = ptl       ! minimum pt for the charged leptons 
 -1.0  = ptlmax    ! maximum pt for the charged leptons
 {} = pt_min_pdg ! pt cut for other particles (use pdg code). Applied on particle and anti-particle
 {}	= pt_max_pdg ! pt cut for other particles (syntax e.g. {6: 100, 25: 50}) 
#
# For display option for energy cut in the partonic center of mass frame type 'update ecut'
#
#*********************************************************************
# Maximum and minimum absolute rapidity (for max, -1 means no cut)   *
#*********************************************************************
 2.5  = etal    ! max rap for the charged leptons 
 0.0  = etalmin ! min rap for the charged leptons
 {} = eta_min_pdg ! rap cut for other particles (use pdg code). Applied on particle and anti-particle
 {} = eta_max_pdg ! rap cut for other particles (syntax e.g. {6: 2.5, 23: 5})
#*********************************************************************
# Minimum and maximum DeltaR distance                                *
#*********************************************************************
 0.4 = drll    ! min distance between leptons 
 -1.0  = drllmax ! max distance between leptons
#*********************************************************************
# Minimum and maximum invariant mass for pairs                       *
#*********************************************************************
 0.0   = mmll    ! min invariant mass of l+l- (same flavour) lepton pair
 -1.0  = mmllmax ! max invariant mass of l+l- (same flavour) lepton pair
 {} = mxx_min_pdg ! min invariant mass of a pair of particles X/X~ (e.g. {6:250})
 {'default': False} = mxx_only_part_antipart ! if True the invariant mass is applied only 
                       ! to pairs of particle/antiparticle and not to pairs of the same pdg codes.  
 #*********************************************************************
 # Minimum and maximum invariant mass for all letpons                 *
 #*********************************************************************
 0.0   = mmnl    ! min invariant mass for all letpons (l+- and vl) 
 -1.0  = mmnlmax ! max invariant mass for all letpons (l+- and vl) 
 #*********************************************************************
 # Minimum and maximum pt for 4-momenta sum of leptons / neutrino     *
 #  for pair of lepton includes only same flavor, opposite charge
 #*********************************************************************
 0.0   = ptllmin  ! Minimum pt for 4-momenta sum of leptons(l and vl)
 -1.0  = ptllmax  ! Maximum pt for 4-momenta sum of leptons(l and vl)
#*********************************************************************
# Inclusive cuts                                                     *
#*********************************************************************
 0.0  = ptheavy   ! minimum pt for at least one heavy final state
 0.0  = xptl ! minimum pt for at least one charged lepton 
 #*********************************************************************
 # Control the pt's of leptons sorted by pt                           *
 #*********************************************************************
 0.0   = ptl1min ! minimum pt for the leading lepton in pt
 0.0   = ptl2min ! minimum pt for the second lepton in pt
 -1.0  = ptl1max ! maximum pt for the leading lepton in pt 
 -1.0  = ptl2max ! maximum pt for the second lepton in pt
#*********************************************************************
# maximal pdg code for quark to be considered as a light jet         *
# (otherwise b cuts are applied)                                     *
#*********************************************************************
 4 = maxjetflavor    ! Maximum jet pdg code
#*********************************************************************
#
#*********************************************************************
# Store info for systematics studies                                 *
# WARNING: Do not use for interference type of computation           *
#*********************************************************************
   True  = use_syst      ! Enable systematics studies
#
systematics = systematics_program ! none, systematics [python], SysCalc [depreceted, C++]
['--mur=0.5,1,2', '--muf=0.5,1,2', '--pdf=errorset'] = systematics_arguments ! see: https://cp3.irmp.ucl.ac.be/projects/madgraph/wiki/Systematics#Systematicspythonmodule
# Syscalc is deprecated but to see the associate options type'update syscalc'
]]>
</MGRunCard>
<slha>
######################################################################
## PARAM_CARD AUTOMATICALY GENERATED BY MG5                       ####
######################################################################
###################################
## INFORMATION FOR MASS
###################################
BLOCK MASS # 
      5 4.700000e+00 # mb
      6 1.720000e+02 # mt
      15 1.777000e+00 # mta
      23 9.118760e+01 # mz
      25 1.250000e+02 # mh
      556 2.000000e+02 # mlwe
      1 0.000000e+00 # d : 0.0
      2 0.000000e+00 # u : 0.0
      3 0.000000e+00 # s : 0.0
      4 0.000000e+00 # c : 0.0
      11 0.000000e+00 # e- : 0.0
      12 0.000000e+00 # ve : 0.0
      13 0.000000e+00 # mu- : 0.0
      14 0.000000e+00 # vm : 0.0
      16 0.000000e+00 # vt : 0.0
      21 0.000000e+00 # g : 0.0
      22 0.000000e+00 # a : 0.0
      24 7.982436e+01 # w+ : cmath.sqrt(mz__exp__2/2. + cmath.sqrt(mz__exp__4/4. - (aew*cmath.pi*mz__exp__2)/(gf*sqrt__2)))
###################################
## INFORMATION FOR SMINPUTS
###################################
BLOCK SMINPUTS # 
      1 1.279000e+02 # aewm1
      2 1.166370e-05 # gf
      3 1.184000e-01 # as (note that parameter not used if you use a pdf set)
###################################
## INFORMATION FOR YUKAWA
###################################
BLOCK YUKAWA # 
      5 4.700000e+00 # ymb
      6 1.720000e+02 # ymt
      15 1.777000e+00 # ymtau
###################################
## INFORMATION FOR DECAY
###################################
BLOCK QNUMBERS 556 #  lwe-
      1 -3 # 3 times electric charge
      2 2 # number of spin states (2s+1)
      3 1 # colour rep (1: singlet, 3: triplet, 8: octet)
      4 1 # particle/antiparticle distinction (0=own anti)
#
#*************************
#      Decay widths      *
#*************************
#
#      PDG        Width
DECAY  1   0.000000e+00
#
#      PDG        Width
DECAY  2   0.000000e+00
#
#      PDG        Width
DECAY  3   0.000000e+00
#
#      PDG        Width
DECAY  4   0.000000e+00
#
#      PDG        Width
DECAY  5   0.000000e+00
#
#      PDG        Width
DECAY  6   1.508336e+00
#
#      PDG        Width
DECAY  11   0.000000e+00
#
#      PDG        Width
DECAY  12   0.000000e+00
#
#      PDG        Width
DECAY  13   0.000000e+00
#
#      PDG        Width
DECAY  14   0.000000e+00
#
#      PDG        Width
DECAY  15   0.000000e+00
#
#      PDG        Width
DECAY  16   0.000000e+00
#
#      PDG        Width
DECAY  21   0.000000e+00
#
#      PDG        Width
DECAY  22   0.000000e+00
#
#      PDG        Width
DECAY  23   2.495200e+00
#
#      PDG        Width
DECAY  24   2.085000e+00
#
#      PDG        Width
DECAY  25   4.070000e-03
#
#      PDG        Width
DECAY  556   7.287748e-12
#  BR             NDA  ID1    ID2   ...
   1.000000e+00   2    23  11 # 7.287748021956571e-12
</slha>
<MGGenerationInfo>
#  Number of Events        :       100
#  Integrated weight (pb)  :       0.014546
</MGGenerationInfo>
</header>
<init>
2212 2212 6.500000e+03 6.500000e+03 0 0 247000 247000 -4 1
1.454600e-02 1.123900e-04 1.454600e-02 1
<generator name='MadGraph5_aMC@NLO' version='2.9.20'>please cite 1405.0301 </generator>
</init>
<event>
 8      1 +1.4546000e-02 1.01797100e+03 7.81860800e-03 9.28905200e-02
        1 -1    0    0  501    0 +0.0000000000e+00 +0.0000000000e+00 +1.4422404926e+03 1.4422404926e+03 0.0000000000e+00 0.0000e+00 -1.0000e+00
       -1 -1    0    0    0  501 -0.0000000000e+00 -0.0000000000e+00 -1.7962747407e+02 1.7962747407e+02 0.0000000000e+00 0.0000e+00 1.0000e+00
     -556  2    1    2    0    0 +2.2158315321e+01 -1.6401795283e+02 +1.3288336401e+03 1.3539541150e+03 2.0000005659e+02 0.0000e+00 0.0000e+00
      556  2    1    2    0    0 -2.2158315321e+01 +1.6401795283e+02 -6.6220621564e+01 2.6791385169e+02 1.9999945355e+02 0.0000e+00 0.0000e+00
      -11  1    3    3    0    0 -1.3899665343e+01 -1.3565294275e+01 +8.0616290486e+00 2.1028736727e+01 0.0000000000e+00 0.0000e+00 -1.0000e+00
       23  1    3    3    0    0 +3.6057980664e+01 -1.5045265855e+02 +1.3207720111e+03 1.3329253783e+03 9.1187600000e+01 0.0000e+00 -1.0000e+00
       11  1    4    4    0    0 +1.0281991366e+01 +1.6157011326e+02 -5.2093003722e+01 1.7007146110e+02 0.0000000000e+00 0.0000e+00 1.0000e+00
       23  1    4    4    0    0 -3.2440306687e+01 +2.4478395693e+00 -1.4127617841e+01 9.7842390589e+01 9.1187600000e+01 0.0000e+00 1.0000e+00
<mgrwt>
<rscale>  0 0.10179706E+04</rscale>
<asrwt>0</asrwt>
<pdfrwt beam="1">  1        1 0.22188314E+00 0.10179706E+04</pdfrwt>
<pdfrwt beam="2">  1       -1 0.27634997E-01 0.10179706E+04</pdfrwt>
<totfact> 0.84636608E+01</totfact>
</mgrwt>
</event>
<event>
 8      1 +1.4546000e-02 8.84591000e+02 7.81860800e-03 9.44505100e-02
        1 -1    0    0  501    0 +0.0000000000e+00 +0.0000000000e+00 +1.1602817116e+03 1.1602817116e+03 0.0000000000e+00 0.0000e+00 -1.0000e+00
       -1 -1    0    0    0  501 -0.0000000000e+00 -0.0000000000e+00 -1.6860154843e+02 1.6860154843e+02 0.0000000000e+00 0.0000e+00 1.0000e+00
     -556  2    1    2    0    0 -2.0737835568e+02 +2.9208831133e+01 +9.9806783604e+02 1.0392296777e+03 1.9999994872e+02 0.0000e+00 0.0000e+00
      556  2    1    2    0    0 +2.0737835568e+02 -2.9208831133e+01 -6.3876728950e+00 2.8965358228e+02 1.9999864285e+02 0.0000e+00 0.0000e+00
      -11  1    3    3    0    0 +1.1915044439e+01 +4.1938868505e+01 +2.6449836536e+02 2.6806757032e+02 0.0000000000e+00 0.0000e+00 -1.0000e+00
       23  1    3    3    0    0 -2.1929340012e+02 -1.2730037372e+01 +7.3356947067e+02 7.7116210740e+02 9.1187600000e+01 0.0000e+00 0.0000e+00
       11  1    4    4    0    0 +3.4906397116e+00 +5.1355615964e+01 -8.7104282945e+00 5.2205894473e+01 0.0000000000e+00 0.0000e+00 1.0000e+00
       23  1    4    4    0    0 +2.0388771597e+02 -8.0564447097e+01 +2.3227553995e+00 2.3744768781e+02 9.1187600000e+01 0.0000e+00 1.0000e+00
<mgrwt>
<rscale>  0 0.88459096E+03</rscale>
<asrwt>0</asrwt>
<pdfrwt beam="1">  1        1 0.17850487E+00 0.88459096E+03</pdfrwt>
<pdfrwt beam="2">  1       -1 0.25938701E-01 0.88459096E+03</pdfrwt>
<totfact> 0.15133135E+02</totfact>
</mgrwt>
</event>
<event>
 8      1 +1.4546000e-02 9.68362000e+02 7.81860800e-03 9.34394200e-02
        2 -1    0    0  501    0 +0.0000000000e+00 +0.0000000000e+00 +2.9857306526e+03 2.9857306526e+03 0.0000000000e+00 0.0000e+00 -1.0000e+00
       -2 -1    0    0    0  501 -0.0000000000e+00 -0.0000000000e+00 -7.8517204531e+01 7.8517204531e+01 0.0000000000e+00 0.0000e+00 1.0000e+00
     -556  2    1    2    0    0 -1.8386241663e+02 +3.3917259375e+02 +7.7797663636e+02 8.9111813606e+02 2.0000112273e+02 0.0000e+00 0.0000e+00
      556  2    1    2    0    0 +1.8386241663e+02 -3.3917259375e+02 +2.1292368117e+03 2.1731297210e+03 1.9999986914e+02 0.0000e+00 0.0000e+00
      -11  1    3    3    0    0 -1.0887636739e+02 +2.6511633502e+02 +6.0114194262e+02 6.6596724367e+02 0.0000000000e+00 0.0000e+00 -1.0000e+00
       23  1    3    3    0    0 -7.4986049241e+01 +7.4056258732e+01 +1.7683469374e+02 2.2515089239e+02 9.1187600000e+01 0.0000e+00 0.0000e+00
       11  1    4    4    0    0 +7.3674539259e+01 -5.9422335695e+01 +2.4080775073e+02 2.5874181055e+02 0.0000000000e+00 0.0000e+00 1.0000e+00
       23  1    4    4    0    0 +1.1018787737e+02 -2.7975025806e+02 +1.8884290609e+03 1.9143879105e+03 9.1187600000e+01 0.0000e+00 0.0000e+00
<mgrwt>
<rscale>  0 0.96836197E+03</rscale>
<asrwt>0</asrwt>
<pdfrwt beam="1">  1        2 0.45934309E+00 0.96836197E+03</pdfrwt>
<pdfrwt beam="2">  1       -2 0.12079572E-01 0.96836197E+03</pdfrwt>
<totfact> 0.92045578E+01</totfact>
</mgrwt>
</event>
<event>
 8      1 +1.4546000e-02 1.19201500e+03 7.81860800e-03 9.11987500e-02
       -2 -1    0    0    0  501 -0.0000000000e+00 +0.0000000000e+00 +1.8120863066e+02 1.8120863066e+02 0.0000000000e+00 0.0000e+00 1.0000e+00
        2 -1    0    0  501    0 +0.0000000000e+00 -0.0000000000e+00 -1.9603087448e+03 1.9603087448e+03 0.0000000000e+00 0.0000e+00 -1.0000e+00
     -556  2    1    2    0    0 -2.8842804913e+02 -3.2873253258e+01 -2.6169694777e+01 3.5349151726e+02 2.0000002386e+02 0.0000e+00 0.0000e+00
      556  2    1    2    0    0 +2.8842804913e+02 +3.2873253258e+01 -1.7529304194e+03 1.7880258582e+03 2.0000006036e+02 0.0000e+00 0.0000e+00
      -11  1    3    3    0    0 -7.1559004392e+00 -5.5391574747e+01 -7.6487188975e+00 5.6373188350e+01 0.0000000000e+00 0.0000e+00 -1.0000e+00
       23  1    3    3    0    0 -2.8127214869e+02 +2.2518321489e+01 -1.8520975880e+01 2.9711832891e+02 9.1187600000e+01 0.0000e+00 1.0000e+00
       11  1    4    4    0    0 -1.4387598589e+01 +2.6345747634e+01 -7.9840429036e+01 8.5297101476e+01 0.0000000000e+00 0.0000e+00 1.0000e+00
       23  1    4    4    0    0 +3.0281564772e+02 +6.5275056236e+00 -1.6730899904e+03 1.7027287567e+03 9.1187600000e+01 0.0000e+00 0.0000e+00
<mgrwt>
<rscale>  0 0.11920149E+04</rscale>
<asrwt>0</asrwt>
<pdfrwt beam="2">  1        2 0.30158598E+00 0.11920149E+04</pdfrwt>
<pdfrwt beam="1">  1       -2 0.27878249E-01 0.11920149E+04</pdfrwt>
<totfact> 0.81647368E+01</totfact>
</mgrwt>
</event>
<event>
 8      1 +1.4546000e-02 7.11910200e+02 7.81860800e-03 9.69707800e-02
        1 -1    0    0  501    0 +0.0000000000e+00 +0.0000000000e+00 +9.2377497664e+01 9.2377497664e+01 0.0000000000e+00 0.0000e+00 -1.0000e+00
       -1 -1    0    0    0  501 -0.0000000000e+00 -0.0000000000e+00 -1.3715897135e+03 1.3715897135e+03 0.0000000000e+00 0.0000e+00 1.0000e+00
     -556  2    1    2    0    0 -1.0905788854e+02 +6.7312301489e+01 -1.1847617642e+03 1.2083397872e+03 2.0000008622e+02 0.0000e+00 0.0000e+00
      556  2    1    2    0    0 +1.0905788854e+02 -6.7312301489e+01 -9.4450451672e+01 2.5562742398e+02 1.9999980771e+02 0.0000e+00 0.0000e+00
      -11  1    3    3    0    0 +4.6383822175e+01 +1.6308119237e+01 -2.9626224005e+02 3.0031438292e+02 0.0000000000e+00 0.0000e+00 -1.0000e+00
       23  1    3    3    0    0 -1.5544171071e+02 +5.1004182253e+01 -8.8849952416e+02 9.0802540431e+02 9.1187600000e+01 0.0000e+00 0.0000e+00
       11  1    4    4    0    0 -4.1676103492e+00 -7.3058622623e+01 -8.1542025111e+01 1.0956291880e+02 0.0000000000e+00 0.0000e+00 1.0000e+00
       23  1    4    4    0    0 +1.1322549889e+02 +5.7463211338e+00 -1.2908426561e+01 1.4606450518e+02 9.1187600000e+01 0.0000e+00 0.0000e+00
<mgrwt>
<rscale>  0 0.71191018E+03</rscale>
<asrwt>0</asrwt>
<pdfrwt beam="1">  1        1 0.14211925E-01 0.71191018E+03</pdfrwt>
<pdfrwt beam="2">  1       -1 0.21101377E+00 0.71191018E+03</pdfrwt>
<totfact> 0.53927268E+01</totfact>
</mgrwt>
</event>
<event>
 8      1 +1.4546000e-02 5.60019000e+02 7.81860800e-03 9.99201200e-02
       -2 -1    0    0    0  501 -0.0000000000e+00 +0.0000000000e+00 +7.9634879110e+01 7.9634879110e+01 0.0000000000e+00 0.0000e+00 1.0000e+00
        2 -1    0    0  501    0 +0.0000000000e+00 -0.0000000000e+00 -9.8455994090e+02 9.8455994090e+02 0.0000000000e+00 0.0000e+00 -1.0000e+00
     -556  2    1    2    0    0 +8.5006090017e+01 -3.1313288460e+01 -7.8268650436e+02 8.1289896646e+02 2.0000002046e+02 0.0000e+00 0.0000e+00
      556  2    1    2    0    0 -8.5006090017e+01 +3.1313288460e+01 -1.2223855743e+02 2.5129585355e+02 2.0000195928e+02 0.0000e+00 0.0000e+00
      -11  1    3    3    0    0 +7.9004885815e+01 -5.5107701547e+01 -5.9551503103e+02 6.0325515575e+02 0.0000000000e+00 0.0000e+00 -1.0000e+00
       23  1    3    3    0    0 +6.0012042014e+00 +2.3794413086e+01 -1.8717147333e+02 2.0964381071e+02 9.1187600000e+01 0.0000e+00 -1.0000e+00
       11  1    4    4    0    0 -1.1055599361e+01 -4.5665095490e+01 -9.8201172428e+01 1.0886228681e+02 0.0000000000e+00 0.0000e+00 1.0000e+00
       23  1    4    4    0    0 -7.3950490656e+01 +7.6978383951e+01 -2.4037385001e+01 1.4243356674e+02 9.1187600000e+01 0.0000e+00 1.0000e+00
<mgrwt>
<rscale>  0 0.56001897E+03</rscale>
<asrwt>0</asrwt>
<pdfrwt beam="2">  1        2 0.15147077E+00 0.56001897E+03</pdfrwt>
<pdfrwt beam="1">  1       -2 0.12251519E-01 0.56001897E+03</pdfrwt>
<totfact> 0.12769209E+03</totfact>
</mgrwt>
</event>
<event>
 8      1 +1.4546000e-02 4.56413300e+02 7.81860800e-03 1.02582700e-01
       -2 -1    0    0    0  501 -0.0000000000e+00 +0.0000000000e+00 +1.4545644020e+01 1.4545644020e+01 0.0000000000e+00 0.0000e+00 1.0000e+00
        2 -1    0    0  501    0 +0.0000000000e+00 -0.0000000000e+00 -3.5803341702e+03 3.5803341702e+03 0.0000000000e+00 0.0000e+00 -1.0000e+00
     -556  2    1    2    0    0 +9.2218509665e+01 -5.5379811074e+01 -1.6055251455e+03 1.6215061279e+03 1.9999988205e+02 0.0000e+00 0.0000e+00
      556  2    1    2    0    0 -9.2218509665e+01 +5.5379811074e+01 -1.9602633807e+03 1.9733736864e+03 2.0000001856e+02 0.0000e+00 0.0000e+00
      -11  1    3    3    0    0 +1.1807903086e+02 -1.5351087461e+01 -6.8774934671e+02 6.9798100068e+02 0.0000000000e+00 0.0000e+00 -1.0000e+00
       23  1    3    3    0    0 -2.5860521191e+01 -4.0028723613e+01 -9.1777579880e+02 9.2352512718e+02 9.1187600000e+01 0.0000e+00 0.0000e+00
       11  1    4    4    0    0 -1.2111012474e+02 +3.9570057373e+01 -9.5886564485e+02 9.6729353178e+02 0.0000000000e+00 0.0000e+00 1.0000e+00
       23  1    4    4    0    0 +2.8891615079e+01 +1.5809753700e+01 -1.0013977358e+03 1.0060801546e+03 9.1187600000e+01 0.0000e+00 0.0000e+00
<mgrwt>
<rscale>  0 0.45641326E+03</rscale>
<asrwt>0</asrwt>
<pdfrwt beam="2">  1        2 0.55082098E+00 0.45641326E+03</pdfrwt>
<pdfrwt beam="1">  1       -2 0.22377900E-02 0.45641326E+03</pdfrwt>
<totfact> 0.56537704E+02</totfact>
</mgrwt>
</event>
<event>
 8      1 +1.4546000e-02 6.28234500e+02 7.81860800e-03 9.84850000e-02
        1 -1    0    0  501    0 +0.0000000000e+00 +0.0000000000e+00 +1.5101439999e+03 1.5101439999e+03 0.0000000000e+00 0.0000e+00 -1.0000e+00
       -1 -1    0    0    0  501 -0.0000000000e+00 -0.0000000000e+00 -6.5337898151e+01 6.5337898151e+01 0.0000000000e+00 0.0000e+00 1.0000e+00
     -556  2    1    2    0    0 +7.2822944475e+00 -5.4408011459e+01 +1.3140314866e+03 1.3302977099e+03 1.9999996381e+02 0.0000e+00 0.0000e+00
      556  2    1    2    0    0 -7.2822944475e+00 +5.4408011459e+01 +1.3077461514e+02 2.4518418820e+02 2.0000005663e+02 0.0000e+00 0.0000e+00
      -11  1    3    3    0    0 -1.3767600255e+01 -5.7655972425e+00 +9.7774922827e+02 9.7786315111e+02 0.0000000000e+00 0.0000e+00 -1.0000e+00
       23  1    3    3    0    0 +2.1049894702e+01 -4.8642414216e+01 +3.3628225837e+02 3.5243455877e+02 9.1187600000e+01 0.0000e+00 -1.0000e+00
       11  1    4    4    0    0 +1.9127423707e+01 -1.3733376131e+01 +1.2604971891e+02 1.2823024447e+02 0.0000000000e+00 0.0000e+00 1.0000e+00
       23  1    4    4    0    0 -2.6409718155e+01 +6.8141387589e+01 +4.7248962261e+00 1.1695394373e+02 9.1187600000e+01 0.0000e+00 1.0000e+00
<mgrwt>
<rscale>  0 0.62823446E+03</rscale>
<asrwt>0</asrwt>
<pdfrwt beam="1">  1        1 0.23232982E+00 0.62823446E+03</pdfrwt>
<pdfrwt beam="2">  1       -1 0.10051986E-01 0.62823446E+03</pdfrwt>
<totfact> 0.41310269E+02</totfact>
</mgrwt>
</event>
<event>
 8      1 +1.4546000e-02 6.08064600e+02 7.81860800e-03 9.88881400e-02
        1 -1    0    0  501    0 +0.0000000000e+00 +0.0000000000e+00 +6.0046338610e+02 6.0046338610e+02 0.0000000000e+00 0.0000e+00 -1.0000e+00
       -1 -1    0    0    0  501 -0.0000000000e+00 -0.0000000000e+00 -1.5394053152e+02 1.5394053152e+02 0.0000000000e+00 0.0000e+00 1.0000e+00
     -556  2    1    2    0    0 +5.0697466404e+01 +5.6215933550e+00 -5.3698056693e+01 2.1327286438e+02 1.9999999494e+02 0.0000e+00 0.0000e+00
      556  2    1    2    0    0 -5.0697466404e+01 -5.6215933550e+00 +5.0022091128e+02 5.4113105325e+02 2.0000005325e+02 0.0000e+00 0.0000e+00
      -11  1    3    3    0    0 -3.6728803684e+01 -2.2712883286e+01 -7.0547445497e+01 8.2715307854e+01 0.0000000000e+00 0.0000e+00 -1.0000e+00
       23  1    3    3    0    0 +8.7426270088e+01 +2.8334476641e+01 +1.6849388804e+01 1.3055755652e+02 9.1187600000e+01 0.0000e+00 0.0000e+00
       11  1    4    4    0    0 -6.2842882968e+01 -4.3441729182e+01 +8.5541294090e+01 1.1468968902e+02 0.0000000000e+00 0.0000e+00 1.0000e+00
       23  1    4    4    0    0 +1.2145416564e+01 +3.7820135827e+01 +4.1467961719e+02 4.2644136422e+02 9.1187600000e+01 0.0000e+00 0.0000e+00
<mgrwt>
<rscale>  0 0.60806464E+03</rscale>
<asrwt>0</asrwt>
<pdfrwt beam="1">  1        1 0.92378981E-01 0.60806464E+03</pdfrwt>
<pdfrwt beam="2">  1       -1 0.23683159E-01 0.60806464E+03</pdfrwt>
<totfact> 0.53093671E+02</totfact>
</mgrwt>
</event>
<event>
 8      1 +1.4546000e-02 5.68892400e+02 7.81860800e-03 9.97213300e-02
        2 -1    0    0  501    0 +0.0000000000e+00 +0.0000000000e+00 +1.4893655471e+03 1.4893655471e+03 0.0000000000e+00 0.0000e+00 -1.0000e+00
       -2 -1    0    0    0  501 -0.0000000000e+00 -0.0000000000e+00 -5.4324895143e+01 5.4324895143e+01 0.0000000000e+00 0.0000e+00 1.0000e+00
     -556  2    1    2    0    0 +7.2519424929e+01 +1.3139915005e+02 +1.0854453269e+03 1.1138743484e+03 1.9999925657e+02 0.0000e+00 0.0000e+00
      556  2    1    2    0    0 -7.2519424929e+01 -1.3139915005e+02 +3.4959532511e+02 4.2981609393e+02 2.0000044909e+02 0.0000e+00 0.0000e+00
      -11  1    3    3    0    0 +1.6590990903e+01 +1.1117141210e+02 +8.0888439537e+02 8.1665678771e+02 0.0000000000e+00 0.0000e+00 -1.0000e+00
       23  1    3    3    0    0 +5.5928434026e+01 +2.0227737948e+01 +2.7656093152e+02 2.9721756064e+02 9.1187600000e+01 0.0000e+00 1.0000e+00
       11  1    4    4    0    0 +3.9681089502e+01 -9.1468668089e+01 +1.2856316765e+02 1.6269478843e+02 0.0000000000e+00 0.0000e+00 1.0000e+00
       23  1    4    4    0    0 -1.1220051443e+02 -3.9930481964e+01 +2.2103215746e+02 2.6712130550e+02 9.1187600000e+01 0.0000e+00 1.0000e+00
<mgrwt>
<rscale>  0 0.56889235E+03</rscale>
<asrwt>0</asrwt>
<pdfrwt beam="1">  1        2 0.22913313E+00 0.56889235E+03</pdfrwt>
<pdfrwt beam="2">  1       -2 0.83576773E-02 0.56889235E+03</pdfrwt>
<totfact> 0.12031855E+03</totfact>
</mgrwt>
</event>
<event>
 8      1 +1.4546000e-02 1.60271300e+03 7.81860800e-03 8.81888300e-02
        1 -1    0    0  501    0 +0.0000000000e+00 +0.0000000000e+00 +7.3149501545e+02 7.3149501545e+02 0.0000000000e+00 0.0000e+00 -1.0000e+00
       -1 -1    0    0    0  501 -0.0000000000e+00 -0.0000000000e+00 -8.7789004370e+02 8.7789004370e+02 0.0000000000e+00 0.0000e+00 1.0000e+00
     -556  2    1    2    0    0 -7.5084097866e+02 +5.9004977178e+01 -2.6086654598e+02 8.2176338251e+02 1.9999984864e+02 0.0000e+00 0.0000e+00
      556  2    1    2    0    0 +7.5084097866e+02 -5.9004977178e+01 +1.1447151773e+02 7.8762167664e+02 2.0000103645e+02 0.0000e+00 0.0000e+00
      -11  1    3    3    0    0 -3.6056838344e+02 +9.6585382818e+01 -8.7042654383e+01 3.8329455905e+02 0.0000000000e+00 0.0000e+00 -1.0000e+00
       23  1    3    3    0    0 -3.9027259522e+02 -3.7580405640e+01 -1.7382389159e+02 4.3846882346e+02 9.1187600000e+01 0.0000e+00 1.0000e+00
       11  1    4    4    0    0 +1.7703276528e+01 +7.7895880768e+00 -2.6235745378e+01 3.2594447653e+01 0.0000000000e+00 0.0000e+00 1.0000e+00
       23  1    4    4    0    0 +7.3313770213e+02 -6.6794565255e+01 +1.4070726310e+02 7.5502722899e+02 9.1187600000e+01 0.0000e+00 1.0000e+00
<mgrwt>
<rscale>  0 0.16027129E+04</rscale>
<asrwt>0</asrwt>
<pdfrwt beam="1">  1        1 0.11253769E+00 0.16027129E+04</pdfrwt>
<pdfrwt beam="2">  1       -1 0.13506001E+00 0.16027129E+04</pdfrwt>
<totfact> 0.11241596E+01</totfact>
</mgrwt>
</event>
<event>
 8      1 +1.4546000e-02 4.39920100e+02 7.81860800e-03 1.03077100e-01
       -2 -1    0    0    0  501 -0.0000000000e+00 +0.0000000000e+00 +1.7973788545e+02 1.7973788545e+02 0.0000000000e+00 0.0000e+00 1.0000e+00
        2 -1    0    0  501    0 +0.0000000000e+00 -0.0000000000e+00 -2.6918316582e+02 2.6918316582e+02 0.0000000000e+00 0.0000e+00 -1.0000e+00
     -556  2    1    2    0    0 -1.4059280046e+01 -3.4416996189e+00 +4.7530394542e+01 2.0607906644e+02 1.9999983642e+02 0.0000e+00 0.0000e+00
      556  2    1    2    0    0 +1.4059280046e+01 +3.4416996189e+00 -1.3697567491e+02 2.4284198483e+02 2.0000096356e+02 0.0000e+00 0.0000e+00
      -11  1    3    3    0    0 +3.8895950473e+01 -6.4545720983e+01 +3.6424661552e+01 8.3700663256e+01 0.0000000000e+00 0.0000e+00 -1.0000e+00
       23  1    3    3    0    0 -5.2955230519e+01 +6.1104021364e+01 +1.1105732990e+01 1.2237840318e+02 9.1187600000e+01 0.0000e+00 0.0000e+00
       11  1    4    4    0    0 +6.0847082113e+01 +4.3282745612e+01 -1.0402269642e+02 1.2804875962e+02 0.0000000000e+00 0.0000e+00 1.0000e+00
       23  1    4    4    0    0 -4.6787802067e+01 -3.9841045993e+01 -3.2952978491e+01 1.1479322521e+02 9.1187600000e+01 0.0000e+00 0.0000e+00
<mgrwt>
<rscale>  0 0.43992005E+03</rscale>
<asrwt>0</asrwt>
<pdfrwt beam="2">  1        2 0.41412794E-01 0.43992005E+03</pdfrwt>
<pdfrwt beam="1">  1       -2 0.27651983E-01 0.43992005E+03</pdfrwt>
<totfact> 0.14699854E+03</totfact>
</mgrwt>
</event>
<event>
 8      1 +1.4546000e-02 4.94054600e+02 7.81860800e-03 1.01534200e-01
       -1 -1    0    0    0  501 -0.0000000000e+00 +0.0000000000e+00 +6.8657709791e+02 6.8657709791e+02 0.0000000000e+00 0.0000e+00 1.0000e+00
        1 -1    0    0  501    0 +0.0000000000e+00 -0.0000000000e+00 -8.8879309781e+01 8.8879309781e+01 0.0000000000e+00 0.0000e+00 -1.0000e+00
     -556  2    1    2    0    0 +6.5892674891e+00 -1.0067363638e+02 +4.6229535129e+02 5.1370760966e+02 1.9999979222e+02 0.0000e+00 0.0000e+00
      556  2    1    2    0    0 -6.5892674891e+00 +1.0067363638e+02 +1.3540243683e+02 2.6174879803e+02 2.0000003465e+02 0.0000e+00 0.0000e+00
      -11  1    3    3    0    0 -5.1029456385e+01 +1.2873823931e+01 +2.1214021241e+02 2.1857083631e+02 0.0000000000e+00 0.0000e+00 -1.0000e+00
       23  1    3    3    0    0 +5.7618723874e+01 -1.1354746031e+02 +2.5015513888e+02 2.9513677335e+02 9.1187600000e+01 0.0000e+00 0.0000e+00
       11  1    4    4    0    0 -7.1104053329e+01 +4.7380385107e+01 +1.0795961406e+01 8.6123400278e+01 0.0000000000e+00 0.0000e+00 1.0000e+00
       23  1    4    4    0    0 +6.4514785840e+01 +5.3293251269e+01 +1.2460647543e+02 1.7562539775e+02 9.1187600000e+01 0.0000e+00 0.0000e+00
<mgrwt>
<rscale>  0 0.49405465E+03</rscale>
<asrwt>0</asrwt>
<pdfrwt beam="2">  1        1 0.13673740E-01 0.49405465E+03</pdfrwt>
<pdfrwt beam="1">  1       -1 0.10562724E+00 0.49405465E+03</pdfrwt>
<totfact> 0.37360683E+02</totfact>
</mgrwt>
</event>
<event>
 8      1 +1.4546000e-02 1.15995100e+03 7.81860800e-03 9.14865300e-02
       -2 -1    0    0    0  501 -0.0000000000e+00 +0.0000000000e+00 +2.3658367535e+02 2.3658367535e+02 0.0000000000e+00 0.0000e+00 1.0000e+00
        2 -1    0    0  501    0 +0.0000000000e+00 -0.0000000000e+00 -1.4217858129e+03 1.4217858129e+03 0.0000000000e+00 0.0000e+00 -1.0000e+00
     -556  2    1    2    0    0 +3.8652418417e+02 -3.7629794677e+02 -6.9737223683e+02 9.0406244515e+02 1.9999944582e+02 0.0000e+00 0.0000e+00
      556  2    1    2    0    0 -3.8652418417e+02 +3.7629794677e+02 -4.8782990069e+02 7.5430704308e+02 2.0000003385e+02 0.0000e+00 0.0000e+00
      -11  1    3    3    0    0 +1.1314007603e+02 -1.9906426108e+02 -2.0945073779e+02 3.1031736723e+02 0.0000000000e+00 0.0000e+00 -1.0000e+00
       23  1    3    3    0    0 +2.7338410814e+02 -1.7723368569e+02 -4.8792149905e+02 5.9374507792e+02 9.1187600000e+01 0.0000e+00 1.0000e+00
       11  1    4    4    0    0 -1.6137134051e+02 +2.3997602074e+02 -1.8733232156e+02 3.4456145862e+02 0.0000000000e+00 0.0000e+00 1.0000e+00
       23  1    4    4    0    0 -2.2515284366e+02 +1.3632192603e+02 -3.0049757913e+02 4.0974558446e+02 9.1187600000e+01 0.0000e+00 -1.0000e+00
<mgrwt>
<rscale>  0 0.11599505E+04</rscale>
<asrwt>0</asrwt>
<pdfrwt beam="2">  1        2 0.21873628E+00 0.11599505E+04</pdfrwt>
<pdfrwt beam="1">  1       -2 0.36397489E-01 0.11599505E+04</pdfrwt>
<totfact> 0.98767319E+01</totfact>
</mgrwt>
</event>
<event>
 8      1 +1.4546000e-02 7.69754700e+02 7.81860800e-03 9.60485800e-02
       -4 -1    0    0    0  501 -0.0000000000e+00 +0.0000000000e+00 +2.7935085046e+02 2.7935085046e+02 0.0000000000e+00 0.0000e+00 1.0000e+00
        4 -1    0    0  501    0 +0.0000000000e+00 -0.0000000000e+00 -5.3026710369e+02 5.3026710369e+02 0.0000000000e+00 0.0000e+00 -1.0000e+00
     -556  2    1    2    0    0 +2.7425776924e+02 +6.8967294065e+01 +5.1031334593e+01 3.5011147848e+02 2.0000009654e+02 0.0000e+00 0.0000e+00
      556  2    1    2    0    0 -2.7425776924e+02 -6.8967294065e+01 -3.0194758782e+02 4.5950647567e+02 2.0000010939e+02 0.0000e+00 0.0000e+00
      -11  1    3    3    0    0 +1.5864752645e+02 -3.4207435890e+01 -3.1720945877e+00 1.6232451603e+02 0.0000000000e+00 0.0000e+00 -1.0000e+00
       23  1    3    3    0    0 +1.1561024278e+02 +1.0317472996e+02 +5.4203429180e+01 1.8778696245e+02 9.1187600000e+01 0.0000e+00 1.0000e+00
       11  1    4    4    0    0 -8.4724501051e+01 -3.0993577519e+00 -1.9887998595e+02 2.1619689154e+02 0.0000000000e+00 0.0000e+00 1.0000e+00
       23  1    4    4    0    0 -1.8953326818e+02 -6.5867936314e+01 -1.0306760187e+02 2.4330958413e+02 9.1187600000e+01 0.0000e+00 0.0000e+00
<mgrwt>
<rscale>  0 0.76975468E+03</rscale>
<asrwt>0</asrwt>
<pdfrwt beam="2">  1        4 0.81579554E-01 0.76975468E+03</pdfrwt>
<pdfrwt beam="1">  1       -4 0.42977054E-01 0.76975468E+03</pdfrwt>
<totfact> 0.13909330E+01</totfact>
</mgrwt>
</event>
<event>
 8      1 +1.4546000e-02 7.26113700e+02 7.81860800e-03 9.67358800e-02
       -1 -1    0    0    0  501 -0.0000000000e+00 +0.0000000000e+00 +2.1564262790e+02 2.1564262790e+02 0.0000000000e+00 0.0000e+00 1.0000e+00
        1 -1    0    0  501    0 +0.0000000000e+00 -0.0000000000e+00 -6.1124411638e+02 6.1124411638e+02 0.0000000000e+00 0.0000e+00 -1.0000e+00
     -556  2    1    2    0    0 -2.7228210862e+01 +8.5482696515e+01 +1.3178160157e+02 2.5576367490e+02 2.0000000004e+02 0.0000e+00 0.0000e+00
      556  2    1    2    0    0 +2.7228210862e+01 -8.5482696515e+01 -5.2738309004e+02 5.7112306938e+02 1.9999992462e+02 0.0000e+00 0.0000e+00
      -11  1    3    3    0    0 -8.5069838457e+01 +1.2880147091e+01 +3.2040097601e+01 9.1811456031e+01 0.0000000000e+00 0.0000e+00 -1.0000e+00
       23  1    3    3    0    0 +5.7841627595e+01 +7.2602549424e+01 +9.9741503965e+01 1.6395221887e+02 9.1187600000e+01 0.0000e+00 0.0000e+00
       11  1    4    4    0    0 +8.1951447959e+01 -5.0036706002e-01 -1.7096894894e+02 1.8959607510e+02 0.0000000000e+00 0.0000e+00 1.0000e+00
       23  1    4    4    0    0 -5.4723237097e+01 -8.4982329455e+01 -3.5641414110e+02 3.8152699429e+02 9.1187600000e+01 0.0000e+00 0.0000e+00
<mgrwt>
<rscale>  0 0.72611373E+03</rscale>
<asrwt>0</asrwt>
<pdfrwt beam="2">  1        1 0.94037557E-01 0.72611373E+03</pdfrwt>
<pdfrwt beam="1">  1       -1 0.33175789E-01 0.72611373E+03</pdfrwt>
<totfact> 0.28795790E+02</totfact>
</mgrwt>
</event>
<event>
 8      1 +1.4546000e-02 6.45698600e+02 7.81860800e-03 9.81488400e-02
        2 -1    0    0  501    0 +0.0000000000e+00 +0.0000000000e+00 +2.6268288342e+03 2.6268288342e+03 0.0000000000e+00 0.0000e+00 -1.0000e+00
       -2 -1    0    0    0  501 -0.0000000000e+00 -0.0000000000e+00 -3.9679660144e+01 3.9679660144e+01 0.0000000000e+00 0.0000e+00 1.0000e+00
     -556  2    1    2    0    0 -7.6244255949e+01 -1.9551400626e+02 +1.8804096653e+03 1.9026243740e+03 2.0000021487e+02 0.0000e+00 0.0000e+00
      556  2    1    2    0    0 +7.6244255949e+01 +1.9551400626e+02 +7.0673950881e+02 7.6388412040e+02 1.9999825722e+02 0.0000e+00 0.0000e+00
      -11  1    3    3    0    0 -1.7941740010e+01 -2.5329518765e+01 +9.5443991665e+02 9.5494452459e+02 0.0000000000e+00 0.0000e+00 -1.0000e+00
       23  1    3    3    0    0 -5.8302515939e+01 -1.7018448749e+02 +9.2596974862e+02 9.4767984937e+02 9.1187600000e+01 0.0000e+00 -1.0000e+00
       11  1    4    4    0    0 +1.3269449398e+01 -9.4705895929e+00 -3.2581738702e+00 1.6624862451e+01 0.0000000000e+00 0.0000e+00 1.0000e+00
       23  1    4    4    0    0 +6.2974806551e+01 +2.0498459585e+02 +7.0999768268e+02 7.4725925795e+02 9.1187600000e+01 0.0000e+00 1.0000e+00
<mgrwt>
<rscale>  0 0.64569862E+03</rscale>
<asrwt>0</asrwt>
<pdfrwt beam="1">  1        2 0.40412738E+00 0.64569862E+03</pdfrwt>
<pdfrwt beam="2">  1       -2 0.61045652E-02 0.64569862E+03</pdfrwt>
<totfact> 0.46656584E+02</totfact>
</mgrwt>
</event>
<event>
 8      1 +1.4546000e-02 4.76035000e+02 7.81860800e-03 1.02023100e-01
        2 -1    0    0  501    0 +0.0000000000e+00 +0.0000000000e+00 +5.9132620442e+02 5.9132620442e+02 0.0000000000e+00 0.0000e+00 -1.0000e+00
       -2 -1    0    0    0  501 -0.0000000000e+00 -0.0000000000e+00 -9.5805566456e+01 9.5805566456e+01 0.0000000000e+00 0.0000e+00 1.0000e+00
     -556  2    1    2    0    0 +1.1375810070e+02 -3.2842386202e+01 +1.7369547720e+02 2.9015453456e+02 2.0000001830e+02 0.0000e+00 0.0000e+00
      556  2    1    2    0    0 -1.1375810070e+02 +3.2842386202e+01 +3.2182516076e+02 3.9697723631e+02 1.9999991061e+02 0.0000e+00 0.0000e+00
      -11  1    3    3    0    0 +8.4200837629e+01 +5.4750292019e+01 +5.6500215680e+01 1.1523736332e+02 0.0000000000e+00 0.0000e+00 -1.0000e+00
       23  1    3    3    0    0 +2.9557263071e+01 -8.7592678221e+01 +1.1719526152e+02 1.7491717124e+02 9.1187600000e+01 0.0000e+00 0.0000e+00
       11  1    4    4    0    0 +1.8837801571e+01 +5.2683838154e+01 +1.5295406997e+02 1.6286619383e+02 0.0000000000e+00 0.0000e+00 1.0000e+00
       23  1    4    4    0    0 -1.3259590227e+02 -1.9841451953e+01 +1.6887109079e+02 2.3411104248e+02 9.1187600000e+01 0.0000e+00 0.0000e+00
<mgrwt>
<rscale>  0 0.47603505E+03</rscale>
<asrwt>0</asrwt>
<pdfrwt beam="1">  1        2 0.90973260E-01 0.47603505E+03</pdfrwt>
<pdfrwt beam="2">  1       -2 0.14739318E-01 0.47603505E+03</pdfrwt>
<totfact> 0.18180258E+03</totfact>
</mgrwt>
</event>
<event>
 8      1 +1.4546000e-02 8.80998800e+02 7.81860800e-03 9.44965100e-02
        2 -1    0    0  501    0 +0.0000000000e+00 +0.0000000000e+00 +4.7852293294e+02 4.7852293294e+02 0.0000000000e+00 0.0000e+00 -1.0000e+00
       -2 -1    0    0    0  501 -0.0000000000e+00 -0.0000000000e+00 -4.0549721286e+02 4.0549721286e+02 0.0000000000e+00 0.0000e+00 1.0000e+00
     -556  2    1    2    0    0 -1.1229550118e+01 -3.4506727061e+02 -1.5078796661e+02 4.2653780724e+02 1.9999991523e+02 0.0000e+00 0.0000e+00
      556  2    1    2    0    0 +1.1229550118e+01 +3.4506727061e+02 +2.2381368669e+02 4.5748233856e+02 1.9999999926e+02 0.0000e+00 0.0000e+00
      -11  1    3    3    0    0 +7.1872783520e+01 -9.9286841346e+01 -3.0094538048e+01 1.2621115282e+02 0.0000000000e+00 0.0000e+00 -1.0000e+00
       23  1    3    3    0    0 -8.3102333638e+01 -2.4578042926e+02 -1.2069342857e+02 3.0032665442e+02 9.1187600000e+01 0.0000e+00 1.0000e+00
       11  1    4    4    0    0 -2.1314783923e+00 -1.6157268403e+01 +3.7144305397e+01 4.0562297097e+01 0.0000000000e+00 0.0000e+00 1.0000e+00
       23  1    4    4    0    0 +1.3361028510e+01 +3.6122453901e+02 +1.8666938129e+02 4.1692004146e+02 9.1187600000e+01 0.0000e+00 0.0000e+00
<mgrwt>
<rscale>  0 0.88099879E+03</rscale>
<asrwt>0</asrwt>
<pdfrwt beam="1">  1        2 0.73618912E-01 0.88099879E+03</pdfrwt>
<pdfrwt beam="2">  1       -2 0.62384187E-01 0.88099879E+03</pdfrwt>
<totfact> 0.15522130E+02</totfact>
</mgrwt>
</event>
<event>
 8      1 +1.4546000e-02 9.11784400e+02 7.81860800e-03 9.41096900e-02
        2 -1    0    0  501    0 +0.0000000000e+00 +0.0000000000e+00 +6.3167691320e+02 6.3167691320e+02 0.0000000000e+00 0.0000e+00 -1.0000e+00
       -2 -1    0    0    0  501 -0.0000000000e+00 -0.0000000000e+00 -3.2902531633e+02 3.2902531633e+02 0.0000000000e+00 0.0000e+00 1.0000e+00
     -556  2    1    2    0    0 -1.2284488139e+01 +3.9510019831e+02 +3.7928815310e+01 4.4462772513e+02 2.0000035892e+02 0.0000e+00 0.0000e+00
      556  2    1    2    0    0 +1.2284488139e+01 -3.9510019831e+02 +2.6472278156e+02 5.1607450441e+02 1.9999916919e+02 0.0000e+00 0.0000e+00
      -11  1    3    3    0    0 -4.4219117572e+01 +2.4476067850e+01 +3.5228809398e+01 6.1607444906e+01 0.0000000000e+00 0.0000e+00 -1.0000e+00
       23  1    3    3    0    0 +3.1934629433e+01 +3.7062413046e+02 +2.7000059118e+00 3.8302028022e+02 9.1187600000e+01 0.0000e+00 0.0000e+00
       11  1    4    4    0    0 +6.8278492919e+01 -2.6635424038e+02 +1.5110339212e+02 3.1374953238e+02 0.0000000000e+00 0.0000e+00 1.0000e+00
       23  1    4    4    0    0 -5.5994004779e+01 -1.2874595793e+02 +1.1361938944e+02 2.0232497203e+02 9.1187600000e+01 0.0000e+00 -1.0000e+00
<mgrwt>
<rscale>  0 0.91178440E+03</rscale>
<asrwt>0</asrwt>
<pdfrwt beam="1">  1        2 0.97181063E-01 0.91178440E+03</pdfrwt>
<pdfrwt beam="2">  1       -2 0.50619280E-01 0.91178440E+03</pdfrwt>
<totfact> 0.17236680E+02</totfact>
</mgrwt>
</event>
<event>
 8      1 +1.4546000e-02 5.87027300e+02 7.81860800e-03 9.93269200e-02
        2 -1    0    0  501    0 +0.0000000000e+00 +0.0000000000e+00 +2.0330602308e+03 2.0330602308e+03 0.0000000000e+00 0.0000e+00 -1.0000e+00
       -2 -1    0    0    0  501 -0.0000000000e+00 -0.0000000000e+00 -4.2374673259e+01 4.2374673259e+01 0.0000000000e+00 0.0000e+00 1.0000e+00
     -556  2    1    2    0    0 +1.6350278423e+02 -1.1202083923e+02 +7.0233422854e+02 7.5667375989e+02 1.9999995364e+02 0.0000e+00 0.0000e+00
      556  2    1    2    0    0 -1.6350278423e+02 +1.1202083923e+02 +1.2883513290e+03 1.3187611442e+03 1.9999994891e+02 0.0000e+00 0.0000e+00
      -11  1    3    3    0    0 +1.4914995040e+02 -9.6964129351e+01 +5.4860244550e+02 5.7672557884e+02 0.0000000000e+00 0.0000e+00 -1.0000e+00
       23  1    3    3    0    0 +1.4352833820e+01 -1.5056709876e+01 +1.5373178305e+02 1.7994818105e+02 9.1187600000e+01 0.0000e+00 1.0000e+00
       11  1    4    4    0    0 -7.0126010383e+01 +6.8197432705e+01 +2.1009619199e+02 2.3175192998e+02 0.0000000000e+00 0.0000e+00 1.0000e+00
       23  1    4    4    0    0 -9.3376773843e+01 +4.3823406523e+01 +1.0782551371e+03 1.0870092142e+03 9.1187600000e+01 0.0000e+00 0.0000e+00
<mgrwt>
<rscale>  0 0.58702730E+03</rscale>
<asrwt>0</asrwt>
<pdfrwt beam="1">  1        2 0.31277842E+00 0.58702730E+03</pdfrwt>
<pdfrwt beam="2">  1       -2 0.65191821E-02 0.58702730E+03</pdfrwt>
<totfact> 0.90291270E+02</totfact>
</mgrwt>
</event>
<event>
 8      1 +1.4546000e-02 1.00458100e+03 7.81860800e-03 9.30353400e-02
        1 -1    0    0  501    0 +0.0000000000e+00 +0.0000000000e+00 +8.8804863603e+02 8.8804863603e+02 0.0000000000e+00 0.0000e+00 -1.0000e+00
       -1 -1    0    0    0  501 -0.0000000000e+00 -0.0000000000e+00 -2.8410154886e+02 2.8410154886e+02 0.0000000000e+00 0.0000e+00 1.0000e+00
     -556  2    1    2    0    0 +2.9617894645e+02 +7.1141532910e+01 +7.0534584425e+02 7.9391175590e+02 2.0000007534e+02 0.0000e+00 0.0000e+00
      556  2    1    2    0    0 -2.9617894645e+02 -7.1141532910e+01 -1.0139875707e+02 3.7823842899e+02 1.9999878800e+02 0.0000e+00 0.0000e+00
      -11  1    3    3    0    0 +1.0401247353e+01 -1.1940691385e+01 +1.9841357141e+02 1.9904449598e+02 0.0000000000e+00 0.0000e+00 -1.0000e+00
       23  1    3    3    0    0 +2.8577769910e+02 +8.3082224295e+01 +5.0693227283e+02 5.9486725992e+02 9.1187600000e+01 0.0000e+00 0.0000e+00
       11  1    4    4    0    0 -1.8777128930e+02 +1.2664744545e+01 -6.6354981222e+00 1.8831484985e+02 0.0000000000e+00 0.0000e+00 1.0000e+00
       23  1    4    4    0    0 -1.0840765715e+02 -8.3806277455e+01 -9.4763258952e+01 1.8992357913e+02 9.1187600000e+01 0.0000e+00 -1.0000e+00
<mgrwt>
<rscale>  0 0.10045815E+04</rscale>
<asrwt>0</asrwt>
<pdfrwt beam="1">  1        1 0.13662287E+00 0.10045815E+04</pdfrwt>
<pdfrwt beam="2">  1       -1 0.43707931E-01 0.10045815E+04</pdfrwt>
<totfact> 0.96408131E+01</totfact>
</mgrwt>
</event>
<event>
 8      1 +1.4546000e-02 6.77358300e+02 7.81860800e-03 9.75675600e-02
        2 -1    0    0  501    0 +0.0000000000e+00 +0.0000000000e+00 +6.7941888689e+02 6.7941888689e+02 0.0000000000e+00 0.0000e+00 1.0000e+00
       -2 -1    0    0    0  501 -0.0000000000e+00 -0.0000000000e+00 -1.6882599066e+02 1.6882599066e+02 0.0000000000e+00 0.0000e+00 -1.0000e+00
     -556  2    1    2    0    0 -1.5445441554e+02 -1.8183649765e+02 +4.2229163358e+02 5.2464352792e+02 1.9999982308e+02 0.0000e+00 0.0000e+00
      556  2    1    2    0    0 +1.5445441554e+02 +1.8183649765e+02 +8.8301262649e+01 3.2360134963e+02 2.0000010535e+02 0.0000e+00 0.0000e+00
      -11  1    3    3    0    0 +7.1683981707e+00 -7.7234660597e+01 +2.1014261947e+02 2.2400111439e+02 0.0000000000e+00 0.0000e+00 -1.0000e+00
       23  1    3    3    0    0 -1.6162281371e+02 -1.0460183706e+02 +2.1214901411e+02 3.0064241352e+02 9.1187600000e+01 0.0000e+00 0.0000e+00
       11  1    4    4    0    0 -7.2152941919e+00 -2.3693339311e+01 -1.3906222108e+01 2.8404538568e+01 0.0000000000e+00 0.0000e+00 1.0000e+00
       23  1    4    4    0    0 +1.6166970973e+02 +2.0552983697e+02 +1.0220748476e+02 2.9519681106e+02 9.1187600000e+01 0.0000e+00 0.0000e+00
<mgrwt>
<rscale>  0 0.67735830E+03</rscale>
<asrwt>0</asrwt>
<pdfrwt beam="1">  1        2 0.10452598E+00 0.67735830E+03</pdfrwt>
<pdfrwt beam="2">  1       -2 0.25973230E-01 0.67735830E+03</pdfrwt>
<totfact> 0.57231630E+02</totfact>
</mgrwt>
</event>
<event>
 8      1 +1.4546000e-02 5.42426900e+02 7.81860800e-03 1.00326200e-01
        2 -1    0    0  501    0 +0.0000000000e+00 +0.0000000000e+00 +5.0074562321e+02 5.0074562321e+02 0.0000000000e+00 0.0000e+00 1.0000e+00
       -2 -1    0    0    0  501 -0.0000000000e+00 -0.0000000000e+00 -1.4689439906e+02 1.4689439906e+02 0.0000000000e+00 0.0000e+00 -1.0000e+00
     -556  2    1    2    0    0 +7.6455910348e+01 +7.7591686635e+01 +3.5277051778e+02 4.1989637557e+02 1.9999987985e+02 0.0000e+00 0.0000e+00
      556  2    1    2    0    0 -7.6455910348e+01 -7.7591686635e+01 +1.0807063721e+00 2.2774364671e+02 2.0000006157e+02 0.0000e+00 0.0000e+00
      -11  1    3    3    0    0 +4.0448034241e+01 +3.4948200187e+01 +2.3248692152e+00 5.3505375310e+01 0.0000000000e+00 0.0000e+00 -1.0000e+00
       23  1    3    3    0    0 +3.6007876108e+01 +4.2643486449e+01 +3.5044564856e+02 3.6639100026e+02 9.1187600000e+01 0.0000e+00 0.0000e+00
       11  1    4    4    0    0 -6.8261189359e+01 -4.8196419623e+01 +7.0351326245e+01 1.0923275123e+02 0.0000000000e+00 0.0000e+00 1.0000e+00
       23  1    4    4    0    0 -8.1947209895e+00 -2.9395267012e+01 -6.9270619872e+01 1.1851089547e+02 9.1187600000e+01 0.0000e+00 0.0000e+00
<mgrwt>
<rscale>  0 0.54242687E+03</rscale>
<asrwt>0</asrwt>
<pdfrwt beam="1">  1        2 0.77037787E-01 0.54242687E+03</pdfrwt>
<pdfrwt beam="2">  1       -2 0.22599139E-01 0.54242687E+03</pdfrwt>
<totfact> 0.10590944E+03</totfact>
</mgrwt>
</event>
<event>
 8      1 +1.4546000e-02 6.19596500e+02 7.81860800e-03 9.86556300e-02
       -2 -1    0    0    0  501 -0.0000000000e+00 +0.0000000000e+00 +3.1392069623e+01 3.1392069623e+01 0.0000000000e+00 0.0000e+00 1.0000e+00
        2 -1    0    0  501    0 +0.0000000000e+00 -0.0000000000e+00 -3.0572990416e+03 3.0572990416e+03 0.0000000000e+00 0.0000e+00 -1.0000e+00
     -556  2    1    2    0    0 +1.4215806995e+02 +1.8641958011e+02 -1.3542361425e+03 1.3888544738e+03 2.0000010788e+02 0.0000e+00 0.0000e+00
      556  2    1    2    0    0 -1.4215806995e+02 -1.8641958011e+02 -1.6716708295e+03 1.6998366374e+03 2.0000013742e+02 0.0000e+00 0.0000e+00
      -11  1    3    3    0    0 +4.4141952454e+01 +6.0475163217e+01 -1.2315913805e+02 1.4413164336e+02 0.0000000000e+00 0.0000e+00 -1.0000e+00
       23  1    3    3    0    0 +9.8016117497e+01 +1.2594441689e+02 -1.2310770045e+03 1.2447228305e+03 9.1187600000e+01 0.0000e+00 -1.0000e+00
       11  1    4    4    0    0 -9.4688044056e+01 -3.8639123818e+01 -9.7247796659e+02 9.7784058163e+02 0.0000000000e+00 0.0000e+00 1.0000e+00
       23  1    4    4    0    0 -4.7470025894e+01 -1.4778045629e+02 -6.9919286289e+02 7.2199605576e+02 9.1187600000e+01 0.0000e+00 -1.0000e+00
<mgrwt>
<rscale>  0 0.61959646E+03</rscale>
<asrwt>0</asrwt>
<pdfrwt beam="2">  1        2 0.47035367E+00 0.61959646E+03</pdfrwt>
<pdfrwt beam="1">  1       -2 0.48295495E-02 0.61959646E+03</pdfrwt>
<totfact> 0.37461367E+02</totfact>
</mgrwt>
</event>
<event>
 8      1 +1.4546000e-02 5.20605700e+02 7.81860800e-03 1.00853600e-01
       -2 -1    0    0    0  501 -0.0000000000e+00 +0.0000000000e+00 +6.7962603919e+01 6.7962603919e+01 0.0000000000e+00 0.0000e+00 1.0000e+00
        2 -1    0    0  501    0 +0.0000000000e+00 -0.0000000000e+00 -9.9698314119e+02 9.9698314119e+02 0.0000000000e+00 0.0000e+00 -1.0000e+00
     -556  2    1    2    0    0 +1.6376394264e+02 -2.8756350505e+01 -4.4286315426e+02 5.1358869683e+02 2.0000004877e+02 0.0000e+00 0.0000e+00
      556  2    1    2    0    0 -1.6376394264e+02 +2.8756350505e+01 -4.8615738301e+02 5.5135704828e+02 2.0000009256e+02 0.0000e+00 0.0000e+00
      -11  1    3    3    0    0 -2.2010181333e+01 -2.4098882116e+01 -1.0595922134e+01 3.4314395921e+01 0.0000000000e+00 0.0000e+00 -1.0000e+00
       23  1    3    3    0    0 +1.8577412397e+02 -4.6574683894e+00 -4.3226723213e+02 4.7927430091e+02 9.1187600000e+01 0.0000e+00 0.0000e+00
       11  1    4    4    0    0 -1.6033665601e+02 +1.8369688826e+01 -2.4574851912e+02 2.9400276084e+02 0.0000000000e+00 0.0000e+00 1.0000e+00
       23  1    4    4    0    0 -3.4272866276e+00 +1.0386661679e+01 -2.4040886389e+02 2.5735428744e+02 9.1187600000e+01 0.0000e+00 -1.0000e+00
<mgrwt>
<rscale>  0 0.52060569E+03</rscale>
<asrwt>0</asrwt>
<pdfrwt beam="2">  1        2 0.15338202E+00 0.52060569E+03</pdfrwt>
<pdfrwt beam="1">  1       -2 0.10455785E-01 0.52060569E+03</pdfrwt>
<totfact> 0.16260932E+03</totfact>
</mgrwt>
</event>
<event>
 8      1 +1.4546000e-02 5.06138100e+02 7.81860800e-03 1.01218900e-01
        1 -1    0    0  501    0 +0.0000000000e+00 +0.0000000000e+00 +1.6407065964e+03 1.6407065964e+03 0.0000000000e+00 0.0000e+00 -1.0000e+00
       -1 -1    0    0    0  501 -0.0000000000e+00 -0.0000000000e+00 -3.9034374361e+01 3.9034374361e+01 0.0000000000e+00 0.0000e+00 1.0000e+00
     -556  2    1    2    0    0 -1.3123611512e+02 -9.9187252872e+00 +5.2872515192e+02 5.8040631727e+02 1.9999976958e+02 0.0000e+00 0.0000e+00
      556  2    1    2    0    0 +1.3123611512e+02 +9.9187252872e+00 +1.0729470701e+03 1.0993346535e+03 1.9999991514e+02 0.0000e+00 0.0000e+00
      -11  1    3    3    0    0 -1.0069600942e+02 -7.2974184621e+01 +2.8147446563e+02 3.0772194062e+02 0.0000000000e+00 0.0000e+00 -1.0000e+00
       23  1    3    3    0    0 -3.0540105700e+01 +6.3055459334e+01 +2.4725068629e+02 2.7268437665e+02 9.1187600000e+01 0.0000e+00 0.0000e+00
       11  1    4    4    0    0 +1.2296173976e+02 -2.4331631468e+00 +8.3623969351e+02 8.4523507661e+02 0.0000000000e+00 0.0000e+00 1.0000e+00
       23  1    4    4    0    0 +8.2743753641e+00 +1.2351888434e+01 +2.3670737662e+02 2.5409957689e+02 9.1187600000e+01 0.0000e+00 -1.0000e+00
<mgrwt>
<rscale>  0 0.50613815E+03</rscale>
<asrwt>0</asrwt>
<pdfrwt beam="1">  1        1 0.25241635E+00 0.50613815E+03</pdfrwt>
<pdfrwt beam="2">  1       -1 0.60052896E-02 0.50613815E+03</pdfrwt>
<totfact> 0.75785257E+02</totfact>
</mgrwt>
</event>
<event>
 8      1 +1.4546000e-02 6.62030100e+02 7.81860800e-03 9.78446400e-02
        2 -1    0    0  501    0 +0.0000000000e+00 +0.0000000000e+00 +9.6379453583e+02 9.6379453583e+02 0.0000000000e+00 0.0000e+00 -1.0000e+00
       -2 -1    0    0    0  501 -0.0000000000e+00 -0.0000000000e+00 -1.1368705610e+02 1.1368705610e+02 0.0000000000e+00 0.0000e+00 1.0000e+00
     -556  2    1    2    0    0 +2.1966649562e+02 +7.3469110620e+01 +6.3040608269e+02 7.0075878580e+02 1.9999991818e+02 0.0000e+00 0.0000e+00
      556  2    1    2    0    0 -2.1966649562e+02 -7.3469110620e+01 +2.1970139703e+02 3.7672280613e+02 2.0000072321e+02 0.0000e+00 0.0000e+00
      -11  1    3    3    0    0 +7.8645067480e+01 +9.5010335064e+01 +3.7121567905e+02 3.9116887757e+02 0.0000000000e+00 0.0000e+00 -1.0000e+00
       23  1    3    3    0    0 +1.4102142814e+02 -2.1541224444e+01 +2.5919040364e+02 3.0958990823e+02 9.1187600000e+01 0.0000e+00 -1.0000e+00
       11  1    4    4    0    0 -5.8589706894e+01 +2.8021803747e+01 +1.3397047197e+02 1.4888271424e+02 0.0000000000e+00 0.0000e+00 1.0000e+00
       23  1    4    4    0    0 -1.6107678873e+02 -1.0149091437e+02 +8.5730925057e+01 2.2784009189e+02 9.1187600000e+01 0.0000e+00 1.0000e+00
<mgrwt>
<rscale>  0 0.66203010E+03</rscale>
<asrwt>0</asrwt>
<pdfrwt beam="1">  1        2 0.14827608E+00 0.66203010E+03</pdfrwt>
<pdfrwt beam="2">  1       -2 0.17490317E-01 0.66203010E+03</pdfrwt>
<totfact> 0.72163879E+02</totfact>
</mgrwt>
</event>
<event>
 8      1 +1.4546000e-02 6.84827900e+02 7.81860800e-03 9.74353600e-02
       -3 -1    0    0    0  501 -0.0000000000e+00 +0.0000000000e+00 +4.9095682660e+02 4.9095682660e+02 0.0000000000e+00 0.0000e+00 1.0000e+00
        3 -1    0    0  501    0 +0.0000000000e+00 -0.0000000000e+00 -2.3881391988e+02 2.3881391988e+02 0.0000000000e+00 0.0000e+00 -1.0000e+00
     -556  2    1    2    0    0 -1.1212357673e+02 -6.0563089608e+01 -1.3713564590e+02 2.7394466429e+02 1.9999977359e+02 0.0000e+00 0.0000e+00
      556  2    1    2    0    0 +1.1212357673e+02 +6.0563089608e+01 +3.8927855262e+02 4.5582608219e+02 2.0000010349e+02 0.0000e+00 0.0000e+00
      -11  1    3    3    0    0 -4.6659573479e+01 -6.3290522600e+00 -1.4157283135e+02 1.4919798684e+02 0.0000000000e+00 0.0000e+00 -1.0000e+00
       23  1    3    3    0    0 -6.5464003248e+01 -5.4234037348e+01 +4.4371854451e+00 1.2474667746e+02 9.1187600000e+01 0.0000e+00 -1.0000e+00
       11  1    4    4    0    0 +4.3056904469e+01 -5.5365721522e+01 +8.0807425845e+01 1.0700046829e+02 0.0000000000e+00 0.0000e+00 1.0000e+00
       23  1    4    4    0    0 +6.9066672258e+01 +1.1592881113e+02 +3.0847112678e+02 3.4882561391e+02 9.1187600000e+01 0.0000e+00 1.0000e+00
<mgrwt>
<rscale>  0 0.68482793E+03</rscale>
<asrwt>0</asrwt>
<pdfrwt beam="2">  1        3 0.36740603E-01 0.68482793E+03</pdfrwt>
<pdfrwt beam="1">  1       -3 0.75531819E-01 0.68482793E+03</pdfrwt>
<totfact> 0.31953806E+01</totfact>
</mgrwt>
</event>
<event>
 8      1 +1.4546000e-02 1.08783900e+03 7.81860800e-03 9.21712700e-02
       -2 -1    0    0    0  501 -0.0000000000e+00 +0.0000000000e+00 +1.2585583446e+02 1.2585583446e+02 0.0000000000e+00 0.0000e+00 1.0000e+00
        2 -1    0    0  501    0 +0.0000000000e+00 -0.0000000000e+00 -2.3506909396e+03 2.3506909396e+03 0.0000000000e+00 0.0000e+00 -1.0000e+00
     -556  2    1    2    0    0 +2.0897561146e+02 +4.4250917518e+02 -1.4036325578e+03 1.4998898271e+03 1.9999989972e+02 0.0000e+00 0.0000e+00
      556  2    1    2    0    0 -2.0897561146e+02 -4.4250917518e+02 -8.2120254732e+02 9.7665694692e+02 1.9999997985e+02 0.0000e+00 0.0000e+00
      -11  1    3    3    0    0 +1.8373943685e+02 +2.8012539260e+02 -1.0006031629e+03 1.0551952928e+03 0.0000000000e+00 0.0000e+00 -1.0000e+00
       23  1    3    3    0    0 +2.5236174603e+01 +1.6238378258e+02 -4.0302939487e+02 4.4469453434e+02 9.1187600000e+01 0.0000e+00 -1.0000e+00
       11  1    4    4    0    0 -1.6774390349e+02 -1.9133668238e+02 -4.5699257364e+02 5.2305827166e+02 0.0000000000e+00 0.0000e+00 1.0000e+00
       23  1    4    4    0    0 -4.1231707967e+01 -2.5117249280e+02 -3.6420997368e+02 4.5359867526e+02 9.1187600000e+01 0.0000e+00 -1.0000e+00
<mgrwt>
<rscale>  0 0.10878385E+04</rscale>
<asrwt>0</asrwt>
<pdfrwt beam="2">  1        2 0.36164474E+00 0.10878385E+04</pdfrwt>
<pdfrwt beam="1">  1       -2 0.19362437E-01 0.10878385E+04</pdfrwt>
<totfact> 0.96010859E+01</totfact>
</mgrwt>
</event>
<event>
 8      1 +1.4546000e-02 4.45633000e+02 7.81860800e-03 1.02903200e-01
        2 -1    0    0  501    0 +0.0000000000e+00 +0.0000000000e+00 +1.1612325055e+03 1.1612325055e+03 0.0000000000e+00 0.0000e+00 -1.0000e+00
       -2 -1    0    0    0  501 -0.0000000000e+00 -0.0000000000e+00 -4.2753878294e+01 4.2753878294e+01 0.0000000000e+00 0.0000e+00 1.0000e+00
     -556  2    1    2    0    0 -9.7372410295e+01 +9.1898182476e+00 +5.3486826735e+02 5.7935301802e+02 2.0000004257e+02 0.0000e+00 0.0000e+00
      556  2    1    2    0    0 +9.7372410295e+01 -9.1898182476e+00 +5.8361035989e+02 6.2463336580e+02 1.9999987615e+02 0.0000e+00 0.0000e+00
      -11  1    3    3    0    0 +4.0990433747e+01 +2.3496798962e+01 +6.1098903453e+01 7.7235945151e+01 0.0000000000e+00 0.0000e+00 -1.0000e+00
       23  1    3    3    0    0 -1.3836284404e+02 -1.4306980714e+01 +4.7376936389e+02 5.0211707287e+02 9.1187600000e+01 0.0000e+00 0.0000e+00
       11  1    4    4    0    0 +3.2828967982e+01 -4.0516840991e+01 +3.2509848643e+01 6.1451165989e+01 0.0000000000e+00 0.0000e+00 1.0000e+00
       23  1    4    4    0    0 +6.4543442313e+01 +3.1327022744e+01 +5.5110051125e+02 5.6318219981e+02 9.1187600000e+01 0.0000e+00 0.0000e+00
<mgrwt>
<rscale>  0 0.44563300E+03</rscale>
<asrwt>0</asrwt>
<pdfrwt beam="1">  1        2 0.17865113E+00 0.44563300E+03</pdfrwt>
<pdfrwt beam="2">  1       -2 0.65775206E-02 0.44563300E+03</pdfrwt>
<totfact> 0.27043305E+03</totfact>
</mgrwt>
</event>
<event>
 8      1 +1.4546000e-02 7.59208900e+02 7.81860800e-03 9.62101300e-02
        2 -1    0    0  501    0 +0.0000000000e+00 +0.0000000000e+00 +2.4700286207e+03 2.4700286207e+03 0.0000000000e+00 0.0000e+00 -1.0000e+00
       -2 -1    0    0    0  501 -0.0000000000e+00 -0.0000000000e+00 -5.8339223016e+01 5.8339223016e+01 0.0000000000e+00 0.0000e+00 1.0000e+00
     -556  2    1    2    0    0 +1.8773839739e+02 -4.3827565462e+01 +3.4425788234e+02 4.4235738677e+02 2.0000001683e+02 0.0000e+00 0.0000e+00
      556  2    1    2    0    0 -1.8773839739e+02 +4.3827565462e+01 +2.0674315153e+03 2.0860104569e+03 1.9999998619e+02 0.0000e+00 0.0000e+00
      -11  1    3    3    0    0 -5.9361216898e+00 +2.7349500651e+01 -3.1164160961e+00 2.8159275130e+01 0.0000000000e+00 0.0000e+00 -1.0000e+00
       23  1    3    3    0    0 +1.9367451908e+02 -7.1177066113e+01 +3.4737429843e+02 4.1419811164e+02 9.1187600000e+01 0.0000e+00 0.0000e+00
       11  1    4    4    0    0 -7.3152565743e+01 -3.4794083470e+01 +2.9879373262e+02 3.0957974864e+02 0.0000000000e+00 0.0000e+00 1.0000e+00
       23  1    4    4    0    0 -1.1458583165e+02 +7.8621648932e+01 +1.7686377827e+03 1.7764307083e+03 9.1187600000e+01 0.0000e+00 0.0000e+00
<mgrwt>
<rscale>  0 0.75920893E+03</rscale>
<asrwt>0</asrwt>
<pdfrwt beam="1">  1        2 0.38000432E+00 0.75920893E+03</pdfrwt>
<pdfrwt beam="2">  1       -2 0.89752670E-02 0.75920893E+03</pdfrwt>
<totfact> 0.30702614E+02</totfact>
</mgrwt>
</event>
<event>
 8      1 +1.4546000e-02 7.01173300e+02 7.81860800e-03 9.71522800e-02
        1 -1    0    0  501    0 +0.0000000000e+00 +0.0000000000e+00 +5.7716832740e+02 5.7716832740e+02 0.0000000000e+00 0.0000e+00 -1.0000e+00
       -1 -1    0    0    0  501 -0.0000000000e+00 -0.0000000000e+00 -2.1295518922e+02 2.1295518922e+02 0.0000000000e+00 0.0000e+00 1.0000e+00
     -556  2    1    2    0    0 +2.3927790032e+02 +7.3073722940e+01 +2.1485157372e+01 3.2102210095e+02 1.9999973685e+02 0.0000e+00 0.0000e+00
      556  2    1    2    0    0 -2.3927790032e+02 -7.3073722940e+01 +3.4272798080e+02 4.6910141567e+02 1.9999996698e+02 0.0000e+00 0.0000e+00
      -11  1    3    3    0    0 -2.5746847576e+01 +7.6923244607e+00 +1.9526585669e+01 3.3216856619e+01 0.0000000000e+00 0.0000e+00 -1.0000e+00
       23  1    3    3    0    0 +2.6502474790e+02 +6.5381398479e+01 +1.9585717025e+00 2.8780524433e+02 9.1187600000e+01 0.0000e+00 0.0000e+00
       11  1    4    4    0    0 -8.2345625672e+01 -8.2016383376e+01 +2.2304323841e+02 2.5150700867e+02 0.0000000000e+00 0.0000e+00 1.0000e+00
       23  1    4    4    0    0 -1.5693227465e+02 +8.9426604357e+00 +1.1968474240e+02 2.1759440700e+02 9.1187600000e+01 0.0000e+00 0.0000e+00
<mgrwt>
<rscale>  0 0.70117327E+03</rscale>
<asrwt>0</asrwt>
<pdfrwt beam="1">  1        1 0.88795127E-01 0.70117327E+03</pdfrwt>
<pdfrwt beam="2">  1       -1 0.32762337E-01 0.70117327E+03</pdfrwt>
<totfact> 0.31995836E+02</totfact>
</mgrwt>
</event>
<event>
 8      1 +1.4546000e-02 5.46595000e+02 7.81860800e-03 1.00228500e-01
        2 -1    0    0  501    0 +0.0000000000e+00 +0.0000000000e+00 +5.5871187937e+02 5.5871187937e+02 0.0000000000e+00 0.0000e+00 -1.0000e+00
       -2 -1    0    0    0  501 -0.0000000000e+00 -0.0000000000e+00 -1.3368524602e+02 1.3368524602e+02 0.0000000000e+00 0.0000e+00 1.0000e+00
     -556  2    1    2    0    0 -8.9011836829e+01 +1.4156640651e+02 +3.1641284648e+02 4.0997704099e+02 1.9999982543e+02 0.0000e+00 0.0000e+00
      556  2    1    2    0    0 +8.9011836829e+01 -1.4156640651e+02 +1.0861378688e+02 2.8242008440e+02 1.9999998707e+02 0.0000e+00 0.0000e+00
      -11  1    3    3    0    0 +2.3769690486e+01 +9.5193757551e+01 +1.8249296487e+02 2.0719684334e+02 0.0000000000e+00 0.0000e+00 -1.0000e+00
       23  1    3    3    0    0 -1.1278152731e+02 +4.6372648954e+01 +1.3391988161e+02 2.0278019765e+02 9.1187600000e+01 0.0000e+00 0.0000e+00
       11  1    4    4    0    0 +1.1044906618e+02 -1.1598156102e+02 +8.9441825250e+01 1.8344088645e+02 0.0000000000e+00 0.0000e+00 1.0000e+00
       23  1    4    4    0    0 -2.1437229352e+01 -2.5584845483e+01 +1.9171961625e+01 9.8979197951e+01 9.1187600000e+01 0.0000e+00 0.0000e+00
<mgrwt>
<rscale>  0 0.54659504E+03</rscale>
<asrwt>0</asrwt>
<pdfrwt beam="1">  1        2 0.85955673E-01 0.54659504E+03</pdfrwt>
<pdfrwt beam="2">  1       -2 0.20566961E-01 0.54659504E+03</pdfrwt>
<totfact> 0.11003922E+03</totfact>
</mgrwt>
</event>
<event>
 8      1 +1.4546000e-02 5.81655300e+02 7.81860800e-03 9.94421400e-02
        2 -1    0    0  501    0 +0.0000000000e+00 +0.0000000000e+00 +2.0696999106e+03 2.0696999106e+03 0.0000000000e+00 0.0000e+00 -1.0000e+00
       -2 -1    0    0    0  501 -0.0000000000e+00 -0.0000000000e+00 -4.0866173973e+01 4.0866173973e+01 0.0000000000e+00 0.0000e+00 1.0000e+00
     -556  2    1    2    0    0 +1.5647504437e+02 +1.3479361855e+02 +1.1737123326e+03 1.2084095717e+03 1.9999823566e+02 0.0000e+00 0.0000e+00
      556  2    1    2    0    0 -1.5647504437e+02 -1.3479361855e+02 +8.5512140406e+02 9.0215651287e+02 1.9999999728e+02 0.0000e+00 0.0000e+00
      -11  1    3    3    0    0 +1.9014097923e+01 -5.8567871220e+00 +6.0503987477e+00 2.0795316786e+01 0.0000000000e+00 0.0000e+00 -1.0000e+00
       23  1    3    3    0    0 +1.3746094644e+02 +1.4065040567e+02 +1.1676619339e+03 1.1876142550e+03 9.1187600000e+01 0.0000e+00 -1.0000e+00
       11  1    4    4    0    0 -6.8034136900e+01 +1.6992066739e+01 +1.0427818324e+02 1.2566349357e+02 0.0000000000e+00 0.0000e+00 1.0000e+00
       23  1    4    4    0    0 -8.8440907465e+01 -1.5178568529e+02 +7.5084322082e+02 7.7649301929e+02 9.1187600000e+01 0.0000e+00 1.0000e+00
<mgrwt>
<rscale>  0 0.58165528E+03</rscale>
<asrwt>0</asrwt>
<pdfrwt beam="1">  1        2 0.31841529E+00 0.58165528E+03</pdfrwt>
<pdfrwt beam="2">  1       -2 0.62871053E-02 0.58165528E+03</pdfrwt>
<totfact> 0.91343238E+02</totfact>
</mgrwt>
</event>
<event>
 8      1 +1.4546000e-02 8.46549500e+02 7.81860800e-03 9.49498000e-02
        2 -1    0    0  501    0 +0.0000000000e+00 +0.0000000000e+00 +2.1033548092e+03 2.1033548092e+03 0.0000000000e+00 0.0000e+00 1.0000e+00
       -2 -1    0    0    0  501 -0.0000000000e+00 -0.0000000000e+00 -8.5178933405e+01 8.5178933405e+01 0.0000000000e+00 0.0000e+00 -1.0000e+00
     -556  2    1    2    0    0 +2.2359483322e+02 -2.5655536888e+02 +1.4040988484e+03 1.4585296985e+03 1.9999999700e+02 0.0000e+00 0.0000e+00
      556  2    1    2    0    0 -2.2359483322e+02 +2.5655536888e+02 +6.1407702747e+02 7.3000404411e+02 2.0000000500e+02 0.0000e+00 0.0000e+00
      -11  1    3    3    0    0 +1.2337341316e+02 -9.0761616508e+01 +3.3716802084e+02 3.7032545738e+02 0.0000000000e+00 0.0000e+00 -1.0000e+00
       23  1    3    3    0    0 +1.0022142006e+02 -1.6579375237e+02 +1.0669308275e+03 1.0882042412e+03 9.1187600000e+01 0.0000e+00 0.0000e+00
       11  1    4    4    0    0 -5.0148536903e+01 +7.0733563633e+01 +3.1647956668e+02 3.2814239120e+02 0.0000000000e+00 0.0000e+00 1.0000e+00
       23  1    4    4    0    0 -1.7344629632e+02 +1.8582180525e+02 +2.9759746079e+02 4.0186165290e+02 9.1187600000e+01 0.0000e+00 0.0000e+00
<mgrwt>
<rscale>  0 0.84654951E+03</rscale>
<asrwt>0</asrwt>
<pdfrwt beam="1">  1        2 0.32359301E+00 0.84654951E+03</pdfrwt>
<pdfrwt beam="2">  1       -2 0.13104453E-01 0.84654951E+03</pdfrwt>
<totfact> 0.26195184E+02</totfact>
</mgrwt>
</event>
<event>
 8      1 +1.4546000e-02 4.52452400e+02 7.81860800e-03 1.02699300e-01
       -1 -1    0    0    0  501 -0.0000000000e+00 +0.0000000000e+00 +1.1533561802e+02 1.1533561802e+02 0.0000000000e+00 0.0000e+00 1.0000e+00
        1 -1    0    0  501    0 +0.0000000000e+00 -0.0000000000e+00 -4.4373363244e+02 4.4373363244e+02 0.0000000000e+00 0.0000e+00 -1.0000e+00
     -556  2    1    2    0    0 -9.4611379651e+01 -2.6706795582e+01 -1.1612216990e+02 2.5129406454e+02 1.9999945610e+02 0.0000e+00 0.0000e+00
      556  2    1    2    0    0 +9.4611379651e+01 +2.6706795582e+01 -2.1227584452e+02 3.0777518593e+02 1.9999991204e+02 0.0000e+00 0.0000e+00
      -11  1    3    3    0    0 -1.2034988594e+02 -1.1317009562e+01 -9.3106969850e+01 1.5258138021e+02 0.0000000000e+00 0.0000e+00 -1.0000e+00
       23  1    3    3    0    0 +2.5738506292e+01 -1.5389786020e+01 -2.3015200049e+01 9.8712684326e+01 9.1187600000e+01 0.0000e+00 1.0000e+00
       11  1    4    4    0    0 +9.9258550645e+01 -3.3082701321e+01 -1.4756659304e+02 1.8089395895e+02 0.0000000000e+00 0.0000e+00 1.0000e+00
       23  1    4    4    0    0 -4.6471709937e+00 +5.9789496903e+01 -6.4709251485e+01 1.2688122698e+02 9.1187600000e+01 0.0000e+00 0.0000e+00
<mgrwt>
<rscale>  0 0.45245240E+03</rscale>
<asrwt>0</asrwt>
<pdfrwt beam="2">  1        1 0.68266712E-01 0.45245240E+03</pdfrwt>
<pdfrwt beam="1">  1       -1 0.17743941E-01 0.45245240E+03</pdfrwt>
<totfact> 0.13018367E+03</totfact>
</mgrwt>
</event>
<event>
 8      1 +1.4546000e-02 6.37521800e+02 7.81860800e-03 9.83047900e-02
        2 -1    0    0  501    0 +0.0000000000e+00 +0.0000000000e+00 +1.3986365459e+03 1.3986365459e+03 0.0000000000e+00 0.0000e+00 -1.0000e+00
       -2 -1    0    0    0  501 -0.0000000000e+00 -0.0000000000e+00 -7.2648265910e+01 7.2648265910e+01 0.0000000000e+00 0.0000e+00 1.0000e+00
     -556  2    1    2    0    0 -1.6821221811e+02 -6.0495305636e+00 +2.4200329958e+02 3.5622674419e+02 1.9999987282e+02 0.0000e+00 0.0000e+00
      556  2    1    2    0    0 +1.6821221811e+02 +6.0495305636e+00 +1.0839849804e+03 1.1150580676e+03 1.9999777315e+02 0.0000e+00 0.0000e+00
      -11  1    3    3    0    0 -2.6636921608e+01 +5.7690689610e+01 +1.2856988666e+02 1.4341533048e+02 0.0000000000e+00 0.0000e+00 -1.0000e+00
       23  1    3    3    0    0 -1.4157529650e+02 -6.3740220173e+01 +1.1343341292e+02 2.1281141371e+02 9.1187600000e+01 0.0000e+00 0.0000e+00
       11  1    4    4    0    0 -2.7549457720e+01 +2.7888265486e+01 +2.6111261167e+02 2.6403886825e+02 0.0000000000e+00 0.0000e+00 1.0000e+00
       23  1    4    4    0    0 +1.9576167583e+02 -2.1838734922e+01 +8.2287236875e+02 8.5101919938e+02 9.1187600000e+01 0.0000e+00 -1.0000e+00
<mgrwt>
<rscale>  0 0.63752183E+03</rscale>
<asrwt>0</asrwt>
<pdfrwt beam="1">  1        2 0.21517483E+00 0.63752183E+03</pdfrwt>
<pdfrwt beam="2">  1       -2 0.11176657E-01 0.63752183E+03</pdfrwt>
<totfact> 0.84213087E+02</totfact>
</mgrwt>
</event>
<event>
 8      1 +1.4546000e-02 4.94606700e+02 7.81860800e-03 1.01519600e-01
       -1 -1    0    0    0  501 -0.0000000000e+00 +0.0000000000e+00 +1.1158963157e+02 1.1158963157e+02 0.0000000000e+00 0.0000e+00 1.0000e+00
        1 -1    0    0  501    0 +0.0000000000e+00 -0.0000000000e+00 -5.4807009437e+02 5.4807009437e+02 0.0000000000e+00 0.0000e+00 -1.0000e+00
     -556  2    1    2    0    0 +4.3316409725e+01 -6.7383699736e+01 -3.8017348286e+02 4.3697676139e+02 1.9999984647e+02 0.0000e+00 0.0000e+00
      556  2    1    2    0    0 -4.3316409725e+01 +6.7383699736e+01 -5.6306979944e+01 2.2268296455e+02 2.0000088092e+02 0.0000e+00 0.0000e+00
      -11  1    3    3    0    0 +9.6386822684e+01 -3.3091901779e+01 -2.1600669450e+02 2.3883966509e+02 0.0000000000e+00 0.0000e+00 -1.0000e+00
       23  1    3    3    0    0 -5.3070412959e+01 -3.4291797958e+01 -1.6416678835e+02 1.9813709630e+02 9.1187600000e+01 0.0000e+00 -1.0000e+00
       11  1    4    4    0    0 +4.6428469247e+01 -2.3625133818e+01 +8.5772798950e+00 5.2795070176e+01 0.0000000000e+00 0.0000e+00 1.0000e+00
       23  1    4    4    0    0 -8.9744878972e+01 +9.1008833554e+01 -6.4884259839e+01 1.6988789438e+02 9.1187600000e+01 0.0000e+00 1.0000e+00
<mgrwt>
<rscale>  0 0.49460667E+03</rscale>
<asrwt>0</asrwt>
<pdfrwt beam="2">  1        1 0.84318477E-01 0.49460667E+03</pdfrwt>
<pdfrwt beam="1">  1       -1 0.17167635E-01 0.49460667E+03</pdfrwt>
<totfact> 0.10320808E+03</totfact>
</mgrwt>
</event>
<event>
 8      1 +1.4546000e-02 4.38786400e+02 7.81860800e-03 1.03112000e-01
       -2 -1    0    0    0  501 -0.0000000000e+00 +0.0000000000e+00 +4.1161211186e+02 4.1161211186e+02 0.0000000000e+00 0.0000e+00 1.0000e+00
        2 -1    0    0  501    0 +0.0000000000e+00 -0.0000000000e+00 -1.1693865394e+02 1.1693865394e+02 0.0000000000e+00 0.0000e+00 -1.0000e+00
     -556  2    1    2    0    0 +4.4752100268e+01 -7.6887256405e+01 +1.2952091374e+02 2.5434304256e+02 2.0000078881e+02 0.0000e+00 0.0000e+00
      556  2    1    2    0    0 -4.4752100268e+01 +7.6887256405e+01 +1.6515254417e+02 2.7420772325e+02 2.0000027991e+02 0.0000e+00 0.0000e+00
      -11  1    3    3    0    0 +6.0438169046e+01 -2.8682515912e+01 +1.3415422049e+02 1.4990935218e+02 0.0000000000e+00 0.0000e+00 -1.0000e+00
       23  1    3    3    0    0 -1.5686068778e+01 -4.8204740493e+01 -4.6333067444e+00 1.0443369037e+02 9.1187600000e+01 0.0000e+00 0.0000e+00
       11  1    4    4    0    0 -1.3036273131e+01 +1.0268235443e+02 +1.3442589685e+02 1.6965828029e+02 0.0000000000e+00 0.0000e+00 1.0000e+00
       23  1    4    4    0    0 -3.1715827137e+01 -2.5795098021e+01 +3.0726647325e+01 1.0454944296e+02 9.1187600000e+01 0.0000e+00 0.0000e+00
<mgrwt>
<rscale>  0 0.43878635E+03</rscale>
<asrwt>0</asrwt>
<pdfrwt beam="2">  1        2 0.17990562E-01 0.43878635E+03</pdfrwt>
<pdfrwt beam="1">  1       -2 0.63324939E-01 0.43878635E+03</pdfrwt>
<totfact> 0.74698688E+02</totfact>
</mgrwt>
</event>
<event>
 8      1 +1.4546000e-02 5.52580400e+02 7.81860800e-03 1.00089800e-01
        2 -1    0    0  501    0 +0.0000000000e+00 +0.0000000000e+00 +4.5107897009e+02 4.5107897009e+02 0.0000000000e+00 0.0000e+00 -1.0000e+00
       -2 -1    0    0    0  501 -0.0000000000e+00 -0.0000000000e+00 -1.6923037103e+02 1.6923037103e+02 0.0000000000e+00 0.0000e+00 1.0000e+00
     -556  2    1    2    0    0 -9.3455941560e+01 -1.2421380216e+02 +1.7068852519e+01 2.5387871354e+02 1.9999993451e+02 0.0000e+00 0.0000e+00
      556  2    1    2    0    0 +9.3455941560e+01 +1.2421380216e+02 +2.6477974653e+02 3.6643062758e+02 2.0000002248e+02 0.0000e+00 0.0000e+00
      -11  1    3    3    0    0 +5.0035278324e+01 -2.7904734377e+01 +1.1308331384e+01 5.8395904276e+01 0.0000000000e+00 0.0000e+00 -1.0000e+00
       23  1    3    3    0    0 -1.4349121988e+02 -9.6309067784e+01 +5.7605211354e+00 1.9548280927e+02 9.1187600000e+01 0.0000e+00 0.0000e+00
       11  1    4    4    0    0 -1.3072836176e+01 -1.9184724987e+00 +1.3923310561e+02 1.3985863320e+02 0.0000000000e+00 0.0000e+00 1.0000e+00
       23  1    4    4    0    0 +1.0652877774e+02 +1.2613227466e+02 +1.2554664092e+02 2.2657199438e+02 9.1187600000e+01 0.0000e+00 0.0000e+00
<mgrwt>
<rscale>  0 0.55258035E+03</rscale>
<asrwt>0</asrwt>
<pdfrwt beam="1">  1        2 0.69396764E-01 0.55258035E+03</pdfrwt>
<pdfrwt beam="2">  1       -2 0.26035442E-01 0.55258035E+03</pdfrwt>
<totfact> 0.92650442E+02</totfact>
</mgrwt>
</event>
<event>
 8      1 +1.4546000e-02 4.63393600e+02 7.81860800e-03 1.02380200e-01
        2 -1    0    0  501    0 +0.0000000000e+00 +0.0000000000e+00 +1.3061167759e+02 1.3061167759e+02 0.0000000000e+00 0.0000e+00 -1.0000e+00
       -2 -1    0    0    0  501 -0.0000000000e+00 -0.0000000000e+00 -4.1101538706e+02 4.1101538706e+02 0.0000000000e+00 0.0000e+00 1.0000e+00
     -556  2    1    2    0    0 +6.7211870930e+01 -9.3009899178e+01 -1.1367455669e+02 2.5708033056e+02 2.0000028646e+02 0.0000e+00 0.0000e+00
      556  2    1    2    0    0 -6.7211870930e+01 +9.3009899178e+01 -1.6672915278e+02 2.8454673409e+02 1.9999989140e+02 0.0000e+00 0.0000e+00
      -11  1    3    3    0    0 +5.2993665873e+01 -7.4588002673e+01 +1.9945051314e+01 9.3645629035e+01 0.0000000000e+00 0.0000e+00 -1.0000e+00
       23  1    3    3    0    0 +1.4218205057e+01 -1.8421896505e+01 -1.3361960800e+02 1.6343470152e+02 9.1187600000e+01 0.0000e+00 1.0000e+00
       11  1    4    4    0    0 -7.5111425223e+01 +4.2358605275e+00 -7.3744026172e-01 7.5234383971e+01 0.0000000000e+00 0.0000e+00 1.0000e+00
       23  1    4    4    0    0 +7.8995542928e+00 +8.8774038651e+01 -1.6599171251e+02 2.0931235012e+02 9.1187600000e+01 0.0000e+00 1.0000e+00
<mgrwt>
<rscale>  0 0.46339361E+03</rscale>
<asrwt>0</asrwt>
<pdfrwt beam="1">  1        2 0.20094105E-01 0.46339361E+03</pdfrwt>
<pdfrwt beam="2">  1       -2 0.63233134E-01 0.46339361E+03</pdfrwt>
<totfact> 0.65838223E+02</totfact>
</mgrwt>
</event>
<event>
 8      1 +1.4546000e-02 9.21095500e+02 7.81860800e-03 9.39958900e-02
        1 -1    0    0  501    0 +0.0000000000e+00 +0.0000000000e+00 +2.4170300168e+03 2.4170300168e+03 0.0000000000e+00 0.0000e+00 -1.0000e+00
       -1 -1    0    0    0  501 -0.0000000000e+00 -0.0000000000e+00 -8.7754078660e+01 8.7754078660e+01 0.0000000000e+00 0.0000e+00 1.0000e+00
     -556  2    1    2    0    0 +4.5883184930e+01 +3.6482243025e+02 +6.4224084793e+02 7.6659897222e+02 2.0000001299e+02 0.0000e+00 0.0000e+00
      556  2    1    2    0    0 -4.5883184930e+01 -3.6482243025e+02 +1.6870350902e+03 1.7381851233e+03 1.9999863689e+02 0.0000e+00 0.0000e+00
      -11  1    3    3    0    0 +3.7868441986e+01 +1.8938774052e+02 +4.5447928961e+02 4.9381490444e+02 0.0000000000e+00 0.0000e+00 -1.0000e+00
       23  1    3    3    0    0 +8.0147429441e+00 +1.7543468973e+02 +1.8776155832e+02 2.7278406779e+02 9.1187600000e+01 0.0000e+00 0.0000e+00
       11  1    4    4    0    0 -3.8242352541e+01 -3.0841182025e+02 +1.2242205378e+03 1.2630503765e+03 0.0000000000e+00 0.0000e+00 1.0000e+00
       23  1    4    4    0    0 -7.6408323888e+00 -5.6410609998e+01 +4.6281455241e+02 4.7513474674e+02 9.1187600000e+01 0.0000e+00 -1.0000e+00
<mgrwt>
<rscale>  0 0.92109553E+03</rscale>
<asrwt>0</asrwt>
<pdfrwt beam="1">  1        1 0.37185072E+00 0.92109553E+03</pdfrwt>
<pdfrwt beam="2">  1       -1 0.13500629E-01 0.92109553E+03</pdfrwt>
<totfact> 0.61696140E+01</totfact>
</mgrwt>
</event>
<event>
 8      1 +1.4546000e-02 6.25190900e+02 7.81860800e-03 9.85447900e-02
       -1 -1    0    0    0  501 -0.0000000000e+00 +0.0000000000e+00 +6.4305786174e+01 6.4305786174e+01 0.0000000000e+00 0.0000e+00 1.0000e+00
        1 -1    0    0  501    0 +0.0000000000e+00 -0.0000000000e+00 -1.5195509023e+03 1.5195509023e+03 0.0000000000e+00 0.0000e+00 -1.0000e+00
     -556  2    1    2    0    0 +1.8104439923e+02 +1.3926494347e+02 -5.3898873122e+02 6.1861187553e+02 2.0000000297e+02 0.0000e+00 0.0000e+00
      556  2    1    2    0    0 -1.8104439923e+02 -1.3926494347e+02 -9.1625638494e+02 9.6524481298e+02 1.9999996769e+02 0.0000e+00 0.0000e+00
      -11  1    3    3    0    0 +5.9619914541e+01 -7.2722675912e+00 -2.7065580741e+02 2.7723994331e+02 0.0000000000e+00 0.0000e+00 -1.0000e+00
       23  1    3    3    0    0 +1.2142448469e+02 +1.4653721106e+02 -2.6833292381e+02 3.4137193221e+02 9.1187600000e+01 0.0000e+00 0.0000e+00
       11  1    4    4    0    0 -6.2194037680e+01 -1.0472700137e+01 -6.1993175071e+01 8.8436019396e+01 0.0000000000e+00 0.0000e+00 1.0000e+00
       23  1    4    4    0    0 -1.1885036155e+02 -1.2879224333e+02 -8.5426320986e+02 8.7680879358e+02 9.1187600000e+01 0.0000e+00 0.0000e+00
<mgrwt>
<rscale>  0 0.62519090E+03</rscale>
<asrwt>0</asrwt>
<pdfrwt beam="2">  1        1 0.23377705E+00 0.62519090E+03</pdfrwt>
<pdfrwt beam="1">  1       -1 0.98931985E-02 0.62519090E+03</pdfrwt>
<totfact> 0.41750908E+02</totfact>
</mgrwt>
</event>
<event>
 8      1 +1.4546000e-02 5.69457500e+02 7.81860800e-03 9.97088000e-02
       -1 -1    0    0    0  501 -0.0000000000e+00 +0.0000000000e+00 +7.4173829608e+01 7.4173829608e+01 0.0000000000e+00 0.0000e+00 1.0000e+00
        1 -1    0    0  501    0 +0.0000000000e+00 -0.0000000000e+00 -1.0929791953e+03 1.0929791953e+03 0.0000000000e+00 0.0000e+00 -1.0000e+00
     -556  2    1    2    0    0 -2.0019566519e+02 +2.6283173378e+01 -5.4498251940e+02 6.1463402512e+02 1.9999982206e+02 0.0000e+00 0.0000e+00
      556  2    1    2    0    0 +2.0019566519e+02 -2.6283173378e+01 -4.7382284634e+02 5.5251899983e+02 2.0000011473e+02 0.0000e+00 0.0000e+00
      -11  1    3    3    0    0 -8.5746654932e+01 -1.9890269458e+01 -3.7690495662e+02 3.8704710047e+02 0.0000000000e+00 0.0000e+00 -1.0000e+00
       23  1    3    3    0    0 -1.1444901026e+02 +4.6173442836e+01 -1.6807756277e+02 2.2758692466e+02 9.1187600000e+01 0.0000e+00 0.0000e+00
       11  1    4    4    0    0 -1.0379998524e+01 +2.6427599159e+01 -6.3404873914e+00 2.9092338287e+01 0.0000000000e+00 0.0000e+00 1.0000e+00
       23  1    4    4    0    0 +2.1057566372e+02 -5.2710772537e+01 -4.6748235895e+02 5.2342666154e+02 9.1187600000e+01 0.0000e+00 0.0000e+00
<mgrwt>
<rscale>  0 0.56945747E+03</rscale>
<asrwt>0</asrwt>
<pdfrwt beam="2">  1        1 0.16815064E+00 0.56945747E+03</pdfrwt>
<pdfrwt beam="1">  1       -1 0.11411359E-01 0.56945747E+03</pdfrwt>
<totfact> 0.66747514E+02</totfact>
</mgrwt>
</event>
<event>
 8      1 +1.4546000e-02 7.78548200e+02 7.81860800e-03 9.59159700e-02
        2 -1    0    0  501    0 +0.0000000000e+00 +0.0000000000e+00 +6.3191293047e+02 6.3191293047e+02 0.0000000000e+00 0.0000e+00 -1.0000e+00
       -2 -1    0    0    0  501 -0.0000000000e+00 -0.0000000000e+00 -2.3980255638e+02 2.3980255638e+02 0.0000000000e+00 0.0000e+00 1.0000e+00
     -556  2    1    2    0    0 -2.4211227306e+02 +3.1804790121e+01 -5.9033830403e+01 3.2111488699e+02 1.9999970019e+02 0.0000e+00 0.0000e+00
      556  2    1    2    0    0 +2.4211227306e+02 -3.1804790121e+01 +4.5114420450e+02 5.5060059986e+02 2.0000007468e+02 0.0000e+00 0.0000e+00
      -11  1    3    3    0    0 -5.0053678914e+01 +7.7529599586e+01 -4.6370056694e+01 1.0327822492e+02 0.0000000000e+00 0.0000e+00 -1.0000e+00
       23  1    3    3    0    0 -1.9205859414e+02 -4.5724809465e+01 -1.2663773709e+01 2.1783666207e+02 9.1187600000e+01 0.0000e+00 1.0000e+00
       11  1    4    4    0    0 -2.0599524051e+01 -2.8691612722e+01 +7.4098105182e+01 8.2085797938e+01 0.0000000000e+00 0.0000e+00 1.0000e+00
       23  1    4    4    0    0 +2.6271179711e+02 -3.1131773994e+00 +3.7704609932e+02 4.6851480192e+02 9.1187600000e+01 0.0000e+00 0.0000e+00
<mgrwt>
<rscale>  0 0.77854823E+03</rscale>
<asrwt>0</asrwt>
<pdfrwt beam="1">  1        2 0.97217373E-01 0.77854823E+03</pdfrwt>
<pdfrwt beam="2">  1       -2 0.36892701E-01 0.77854823E+03</pdfrwt>
<totfact> 0.32422641E+02</totfact>
</mgrwt>
</event>
<event>
 8      1 +1.4546000e-02 7.41165000e+02 7.81860800e-03 9.64931400e-02
        2 -1    0    0  501    0 +0.0000000000e+00 +0.0000000000e+00 +1.3951854055e+03 1.3951854055e+03 0.0000000000e+00 0.0000e+00 -1.0000e+00
       -2 -1    0    0    0  501 -0.0000000000e+00 -0.0000000000e+00 -9.8432358499e+01 9.8432358499e+01 0.0000000000e+00 0.0000e+00 1.0000e+00
     -556  2    1    2    0    0 -2.9561551213e+02 +1.6423345999e+01 +8.4657699005e+02 9.1888585809e+02 2.0000090703e+02 0.0000e+00 0.0000e+00
      556  2    1    2    0    0 +2.9561551213e+02 -1.6423345999e+01 +4.5017605694e+02 5.7473190590e+02 2.0000006028e+02 0.0000e+00 0.0000e+00
      -11  1    3    3    0    0 -1.1530324292e+02 -7.2066237934e+00 +1.2965200836e+02 1.7365602934e+02 0.0000000000e+00 0.0000e+00 -1.0000e+00
       23  1    3    3    0    0 -1.8031226921e+02 +2.3629969793e+01 +7.1692498169e+02 7.4522982875e+02 9.1187600000e+01 0.0000e+00 0.0000e+00
       11  1    4    4    0    0 +8.3151221653e+01 -7.3518156767e+01 +8.9773601532e+01 1.4275273927e+02 0.0000000000e+00 0.0000e+00 1.0000e+00
       23  1    4    4    0    0 +2.1246429048e+02 +5.7094810768e+01 +3.6040245541e+02 4.3197916663e+02 9.1187600000e+01 0.0000e+00 0.0000e+00
<mgrwt>
<rscale>  0 0.74116500E+03</rscale>
<asrwt>0</asrwt>
<pdfrwt beam="1">  1        2 0.21464389E+00 0.74116500E+03</pdfrwt>
<pdfrwt beam="2">  1       -2 0.15143441E-01 0.74116500E+03</pdfrwt>
<totfact> 0.50757690E+02</totfact>
</mgrwt>
</event>
<event>
 8      1 +1.4546000e-02 4.45949200e+02 7.81860800e-03 1.02893700e-01
        3 -1    0    0  501    0 +0.0000000000e+00 +0.0000000000e+00 +3.5344643068e+01 3.5344643068e+01 0.0000000000e+00 0.0000e+00 -1.0000e+00
       -3 -1    0    0    0  501 -0.0000000000e+00 -0.0000000000e+00 -1.4066539741e+03 1.4066539741e+03 0.0000000000e+00 0.0000e+00 1.0000e+00
     -556  2    1    2    0    0 -8.7115305989e+00 -3.4391496991e+01 -9.8305222126e+02 1.0038178808e+03 2.0000000550e+02 0.0000e+00 0.0000e+00
      556  2    1    2    0    0 +8.7115305989e+00 +3.4391496991e+01 -3.8825710980e+02 4.3818073643e+02 2.0000027158e+02 0.0000e+00 0.0000e+00
      -11  1    3    3    0    0 -7.5272117492e+00 -3.6735163194e+01 -3.4706988813e+01 5.1095070253e+01 0.0000000000e+00 0.0000e+00 -1.0000e+00
       23  1    3    3    0    0 -1.1843188497e+00 +2.3436662037e+00 -9.4834523244e+02 9.5272281051e+02 9.1187600000e+01 0.0000e+00 0.0000e+00
       11  1    4    4    0    0 +2.4730574481e+01 -4.6118527341e+01 -2.4048260226e+02 2.4611054807e+02 0.0000000000e+00 0.0000e+00 1.0000e+00
       23  1    4    4    0    0 -1.6019043882e+01 +8.0510024332e+01 -1.4777450753e+02 1.9207018836e+02 9.1187600000e+01 0.0000e+00 0.0000e+00
<mgrwt>
<rscale>  0 0.44594925E+03</rscale>
<asrwt>0</asrwt>
<pdfrwt beam="1">  1        3 0.54376369E-02 0.44594925E+03</pdfrwt>
<pdfrwt beam="2">  1       -3 0.21640832E+00 0.44594925E+03</pdfrwt>
<totfact> 0.64982385E+01</totfact>
</mgrwt>
</event>
<event>
 8      1 +1.4546000e-02 1.41028100e+03 7.81860800e-03 8.94641000e-02
        4 -1    0    0  501    0 +0.0000000000e+00 +0.0000000000e+00 +2.4259467624e+02 2.4259467624e+02 0.0000000000e+00 0.0000e+00 -1.0000e+00
       -4 -1    0    0    0  501 -0.0000000000e+00 -0.0000000000e+00 -2.0496043207e+03 2.0496043207e+03 0.0000000000e+00 0.0000e+00 1.0000e+00
     -556  2    1    2    0    0 -3.6498082404e+02 +5.6917017686e+02 -9.1581796909e+02 1.1558063182e+03 2.0000000121e+02 0.0000e+00 0.0000e+00
      556  2    1    2    0    0 +3.6498082404e+02 -5.6917017686e+02 -8.9119167536e+02 1.1363926787e+03 2.0000006485e+02 0.0000e+00 0.0000e+00
      -11  1    3    3    0    0 -5.0965054940e+01 +2.9004454030e+00 -7.2759779393e+01 8.8881015441e+01 0.0000000000e+00 0.0000e+00 -1.0000e+00
       23  1    3    3    0    0 -3.1401576910e+02 +5.6626973145e+02 -8.4305818970e+02 1.0669253027e+03 9.1187600000e+01 0.0000e+00 0.0000e+00
       11  1    4    4    0    0 +2.5544411974e+02 -4.4872737425e+02 -6.1407862803e+02 8.0230948899e+02 0.0000000000e+00 0.0000e+00 1.0000e+00
       23  1    4    4    0    0 +1.0953670430e+02 -1.2044280260e+02 -2.7711304732e+02 3.3408318976e+02 9.1187600000e+01 0.0000e+00 -1.0000e+00
<mgrwt>
<rscale>  0 0.14102810E+04</rscale>
<asrwt>0</asrwt>
<pdfrwt beam="1">  1        4 0.37322257E-01 0.14102810E+04</pdfrwt>
<pdfrwt beam="2">  1       -4 0.31532375E+00 0.14102810E+04</pdfrwt>
<totfact> 0.34048742E-01</totfact>
</mgrwt>
</event>
<event>
 8      1 +1.4546000e-02 5.29087800e+02 7.81860800e-03 1.00645400e-01
        1 -1    0    0  501    0 +0.0000000000e+00 +0.0000000000e+00 +8.0604744796e+02 8.0604744796e+02 0.0000000000e+00 0.0000e+00 -1.0000e+00
       -1 -1    0    0    0  501 -0.0000000000e+00 -0.0000000000e+00 -8.6823005719e+01 8.6823005719e+01 0.0000000000e+00 0.0000e+00 1.0000e+00
     -556  2    1    2    0    0 +1.2518102478e+01 +1.3414979545e+02 +5.4316604778e+02 5.9429138215e+02 2.0000005231e+02 0.0000e+00 0.0000e+00
      556  2    1    2    0    0 -1.2518102478e+01 -1.3414979545e+02 +1.7605839446e+02 2.9857907153e+02 2.0000008297e+02 0.0000e+00 0.0000e+00
      -11  1    3    3    0    0 -4.6839661073e+01 +5.1768961468e+01 +3.5526053949e+02 3.6205528603e+02 0.0000000000e+00 0.0000e+00 -1.0000e+00
       23  1    3    3    0    0 +5.9357763551e+01 +8.2380833984e+01 +1.8790550829e+02 2.3223609612e+02 9.1187600000e+01 0.0000e+00 -1.0000e+00
       11  1    4    4    0    0 -6.1029267175e+01 -2.5360222136e-01 +9.0250741735e+01 1.0894875928e+02 0.0000000000e+00 0.0000e+00 1.0000e+00
       23  1    4    4    0    0 +4.8511164697e+01 -1.3389619323e+02 +8.5807652721e+01 1.8963031224e+02 9.1187600000e+01 0.0000e+00 1.0000e+00
<mgrwt>
<rscale>  0 0.52908775E+03</rscale>
<asrwt>0</asrwt>
<pdfrwt beam="1">  1        1 0.12400729E+00 0.52908775E+03</pdfrwt>
<pdfrwt beam="2">  1       -1 0.13357386E-01 0.52908775E+03</pdfrwt>
<totfact> 0.87624689E+02</totfact>
</mgrwt>
</event>
<event>
 8      1 +1.4546000e-02 5.71774000e+02 7.81860800e-03 9.96576100e-02
       -2 -1    0    0    0  501 -0.0000000000e+00 +0.0000000000e+00 +3.0459561469e+02 3.0459561469e+02 0.0000000000e+00 0.0000e+00 1.0000e+00
        2 -1    0    0  501    0 +0.0000000000e+00 -0.0000000000e+00 -2.6832748543e+02 2.6832748543e+02 0.0000000000e+00 0.0000e+00 -1.0000e+00
     -556  2    1    2    0    0 -1.0865259610e+02 +1.7105430248e+02 -7.7310775808e+00 2.8482394079e+02 1.9999986663e+02 0.0000e+00 0.0000e+00
      556  2    1    2    0    0 +1.0865259610e+02 -1.7105430248e+02 +4.3999206843e+01 2.8809915933e+02 2.0000058592e+02 0.0000e+00 0.0000e+00
      -11  1    3    3    0    0 -9.2485083631e+01 +1.0588280640e+01 -3.0956092040e+01 9.8101386409e+01 0.0000000000e+00 0.0000e+00 -1.0000e+00
       23  1    3    3    0    0 -1.6167512466e+01 +1.6046602184e+02 +2.3225014459e+01 1.8672255438e+02 9.1187600000e+01 0.0000e+00 -1.0000e+00
       11  1    4    4    0    0 +3.9516085744e+01 -1.5396056588e+02 -1.2299516116e+01 1.5942601724e+02 0.0000000000e+00 0.0000e+00 1.0000e+00
       23  1    4    4    0    0 +6.9136510352e+01 -1.7093736608e+01 +5.6298722959e+01 1.2867314209e+02 9.1187600000e+01 0.0000e+00 1.0000e+00
<mgrwt>
<rscale>  0 0.57177400E+03</rscale>
<asrwt>0</asrwt>
<pdfrwt beam="2">  1        2 0.41281151E-01 0.57177400E+03</pdfrwt>
<pdfrwt beam="1">  1       -2 0.46860864E-01 0.57177400E+03</pdfrwt>
<totfact> 0.54098249E+02</totfact>
</mgrwt>
</event>
<event>
 8      1 +1.4546000e-02 5.33718300e+02 7.81860800e-03 1.00533400e-01
       -2 -1    0    0    0  501 -0.0000000000e+00 +0.0000000000e+00 +2.5651089617e+01 2.5651089617e+01 0.0000000000e+00 0.0000e+00 1.0000e+00
        2 -1    0    0  501    0 +0.0000000000e+00 -0.0000000000e+00 -2.7762487421e+03 2.7762487421e+03 0.0000000000e+00 0.0000e+00 -1.0000e+00
     -556  2    1    2    0    0 +1.4659759421e+02 -9.6443431235e+01 -1.4831601280e+03 1.5068364623e+03 1.9999992244e+02 0.0000e+00 0.0000e+00
      556  2    1    2    0    0 -1.4659759421e+02 +9.6443431235e+01 -1.2674375245e+03 1.2950633694e+03 1.9999765525e+02 0.0000e+00 0.0000e+00
      -11  1    3    3    0    0 +3.4408368785e+01 -4.9273993680e+01 -9.6374067702e+02 9.6561273544e+02 0.0000000000e+00 0.0000e+00 -1.0000e+00
       23  1    3    3    0    0 +1.1218922543e+02 -4.7169437555e+01 -5.1941945093e+02 5.4122372688e+02 9.1187600000e+01 0.0000e+00 -1.0000e+00
       11  1    4    4    0    0 -1.3008919468e+02 +1.0266381044e+02 -6.5582309669e+02 6.7643698206e+02 0.0000000000e+00 0.0000e+00 1.0000e+00
       23  1    4    4    0    0 -1.6508399536e+01 -6.2203792029e+00 -6.1161442785e+02 6.1862638734e+02 9.1187600000e+01 0.0000e+00 1.0000e+00
<mgrwt>
<rscale>  0 0.53371830E+03</rscale>
<asrwt>0</asrwt>
<pdfrwt beam="2">  1        2 0.42711493E+00 0.53371830E+03</pdfrwt>
<pdfrwt beam="1">  1       -2 0.39463239E-02 0.53371830E+03</pdfrwt>
<totfact> 0.76033380E+02</totfact>
</mgrwt>
</event>
<event>
 8      1 +1.4546000e-02 5.36710200e+02 7.81860800e-03 1.00461800e-01
       -1 -1    0    0    0  501 -0.0000000000e+00 +0.0000000000e+00 +2.2294345776e+02 2.2294345776e+02 0.0000000000e+00 0.0000e+00 1.0000e+00
        1 -1    0    0  501    0 +0.0000000000e+00 -0.0000000000e+00 -3.2301665878e+02 3.2301665878e+02 0.0000000000e+00 0.0000e+00 -1.0000e+00
     -556  2    1    2    0    0 +6.8598492998e+01 -1.1157026685e+02 +7.3969432465e+01 2.5025007143e+02 1.9999985906e+02 0.0000e+00 0.0000e+00
      556  2    1    2    0    0 -6.8598492998e+01 +1.1157026685e+02 -1.7404263349e+02 2.9571004512e+02 1.9999978706e+02 0.0000e+00 0.0000e+00
      -11  1    3    3    0    0 +4.9180432750e+01 +2.7143721567e+00 -4.0326317932e+01 6.3657636617e+01 0.0000000000e+00 0.0000e+00 -1.0000e+00
       23  1    3    3    0    0 +1.9418060248e+01 -1.1428463901e+02 +1.1429575040e+02 1.8659243481e+02 9.1187600000e+01 0.0000e+00 0.0000e+00
       11  1    4    4    0    0 -7.5630752268e+01 +2.9468485344e+01 +1.7815678358e+00 8.1188523210e+01 0.0000000000e+00 0.0000e+00 1.0000e+00
       23  1    4    4    0    0 +7.0322592700e+00 +8.2101781507e+01 -1.7582420132e+02 2.1452152191e+02 9.1187600000e+01 0.0000e+00 0.0000e+00
<mgrwt>
<rscale>  0 0.53671017E+03</rscale>
<asrwt>0</asrwt>
<pdfrwt beam="2">  1        1 0.49694870E-01 0.53671017E+03</pdfrwt>
<pdfrwt beam="1">  1       -1 0.34298994E-01 0.53671017E+03</pdfrwt>
<totfact> 0.64578660E+02</totfact>
</mgrwt>
</event>
<event>
 8      1 +1.4546000e-02 1.11546200e+03 7.81860800e-03 9.19025100e-02
        2 -1    0    0  501    0 +0.0000000000e+00 +0.0000000000e+00 +1.8553856026e+03 1.8553856026e+03 0.0000000000e+00 0.0000e+00 -1.0000e+00
       -2 -1    0    0    0  501 -0.0000000000e+00 -0.0000000000e+00 -1.6765453624e+02 1.6765453624e+02 0.0000000000e+00 0.0000e+00 1.0000e+00
     -556  2    1    2    0    0 -3.3481253048e+02 -3.1858990187e+02 +4.0910427640e+02 6.4881837893e+02 2.0000005933e+02 0.0000e+00 0.0000e+00
      556  2    1    2    0    0 +3.3481253048e+02 +3.1858990187e+02 +1.2786267900e+03 1.3742217599e+03 2.0000005323e+02 0.0000e+00 0.0000e+00
      -11  1    3    3    0    0 -1.4437492144e+02 -1.1746745954e+02 +2.6425013008e+02 3.2321951246e+02 0.0000000000e+00 0.0000e+00 -1.0000e+00
       23  1    3    3    0    0 -1.9043760904e+02 -2.0112244233e+02 +1.4485414632e+02 3.2559886647e+02 9.1187600000e+01 0.0000e+00 0.0000e+00
       11  1    4    4    0    0 +2.1192515705e+02 +1.3450681020e+02 +8.0992623920e+02 8.4792975365e+02 0.0000000000e+00 0.0000e+00 1.0000e+00
       23  1    4    4    0    0 +1.2288737343e+02 +1.8408309166e+02 +4.6870055077e+02 5.2629200628e+02 9.1187600000e+01 0.0000e+00 0.0000e+00
<mgrwt>
<rscale>  0 0.11154619E+04</rscale>
<asrwt>0</asrwt>
<pdfrwt beam="1">  1        2 0.28544392E+00 0.11154619E+04</pdfrwt>
<pdfrwt beam="2">  1       -2 0.25793007E-01 0.11154619E+04</pdfrwt>
<totfact> 0.10817342E+02</totfact>
</mgrwt>
</event>
<event>
 8      1 +1.4546000e-02 6.55236400e+02 7.81860800e-03 9.79700300e-02
        1 -1    0    0  501    0 +0.0000000000e+00 +0.0000000000e+00 +1.0322788021e+03 1.0322788021e+03 0.0000000000e+00 0.0000e+00 -1.0000e+00
       -1 -1    0    0    0  501 -0.0000000000e+00 -0.0000000000e+00 -1.0397742299e+02 1.0397742299e+02 0.0000000000e+00 0.0000e+00 1.0000e+00
     -556  2    1    2    0    0 +4.2032211401e+01 +4.3974070176e+01 +2.6708622292e+01 2.1074559555e+02 1.9999982474e+02 0.0000e+00 0.0000e+00
      556  2    1    2    0    0 -4.2032211401e+01 -4.3974070176e+01 +9.0159275683e+02 9.2551062956e+02 2.0000000150e+02 0.0000e+00 0.0000e+00
      -11  1    3    3    0    0 +8.2626788493e+01 +3.3477537109e+01 -3.1702374330e+01 9.4620146933e+01 0.0000000000e+00 0.0000e+00 -1.0000e+00
       23  1    3    3    0    0 -4.0594577091e+01 +1.0496533067e+01 +5.8410996622e+01 1.1612544861e+02 9.1187600000e+01 0.0000e+00 0.0000e+00
       11  1    4    4    0    0 +4.8263687829e+01 -3.1048838409e+01 +1.1621227717e+02 1.2960982715e+02 0.0000000000e+00 0.0000e+00 1.0000e+00
       23  1    4    4    0    0 -9.0295899230e+01 -1.2925231767e+01 +7.8538047966e+02 7.9590080240e+02 9.1187600000e+01 0.0000e+00 -1.0000e+00
<mgrwt>
<rscale>  0 0.65523641E+03</rscale>
<asrwt>0</asrwt>
<pdfrwt beam="1">  1        1 0.15881212E+00 0.65523641E+03</pdfrwt>
<pdfrwt beam="2">  1       -1 0.15996527E-01 0.65523641E+03</pdfrwt>
<totfact> 0.42886594E+02</totfact>
</mgrwt>
</event>
<event>
 8      1 +1.4546000e-02 1.25986700e+03 7.81860800e-03 9.06201100e-02
        1 -1    0    0  501    0 +0.0000000000e+00 +0.0000000000e+00 +2.0379926949e+03 2.0379926949e+03 0.0000000000e+00 0.0000e+00 -1.0000e+00
       -1 -1    0    0    0  501 -0.0000000000e+00 -0.0000000000e+00 -1.9470922183e+02 1.9470922183e+02 0.0000000000e+00 0.0000e+00 1.0000e+00
     -556  2    1    2    0    0 -7.0247902223e+01 -3.4398736772e+01 -1.2783373256e+02 2.4992076806e+02 2.0000221566e+02 0.0000e+00 0.0000e+00
      556  2    1    2    0    0 +7.0247902223e+01 +3.4398736772e+01 +1.9711172056e+03 1.9827811486e+03 2.0000001073e+02 0.0000e+00 0.0000e+00
      -11  1    3    3    0    0 +1.0903415280e+01 -5.7323727088e+01 -1.0989980770e+02 1.2443014861e+02 0.0000000000e+00 0.0000e+00 -1.0000e+00
       23  1    3    3    0    0 -8.1151317504e+01 +2.2924990316e+01 -1.7933924864e+01 1.2549061944e+02 9.1187600000e+01 0.0000e+00 1.0000e+00
       11  1    4    4    0    0 +8.8036043861e+01 -6.9699691959e-01 +1.4242964964e+03 1.4270148354e+03 0.0000000000e+00 0.0000e+00 1.0000e+00
       23  1    4    4    0    0 -1.7788141638e+01 +3.5095733691e+01 +5.4682070918e+02 5.5576631320e+02 9.1187600000e+01 0.0000e+00 -1.0000e+00
<mgrwt>
<rscale>  0 0.12598666E+04</rscale>
<asrwt>0</asrwt>
<pdfrwt beam="1">  1        1 0.31353732E+00 0.12598666E+04</pdfrwt>
<pdfrwt beam="2">  1       -1 0.29955266E-01 0.12598666E+04</pdfrwt>
<totfact> 0.28358808E+01</totfact>
</mgrwt>
</event>
<event>
 8      1 +1.4546000e-02 5.26621900e+02 7.81860800e-03 1.00705500e-01
        2 -1    0    0  501    0 +0.0000000000e+00 +0.0000000000e+00 +3.3226825750e+02 3.3226825750e+02 0.0000000000e+00 0.0000e+00 -1.0000e+00
       -2 -1    0    0    0  501 -0.0000000000e+00 -0.0000000000e+00 -2.0866471832e+02 2.0866471832e+02 0.0000000000e+00 0.0000e+00 1.0000e+00
     -556  2    1    2    0    0 +5.3513639753e+01 -4.2151993131e+01 -9.9605633284e+01 2.3358485258e+02 2.0000025252e+02 0.0000e+00 0.0000e+00
      556  2    1    2    0    0 -5.3513639753e+01 +4.2151993131e+01 +2.2320917247e+02 3.0734812324e+02 2.0000008505e+02 0.0000e+00 0.0000e+00
      -11  1    3    3    0    0 -4.6855671485e+01 +2.6926536515e+01 -4.9708544435e+01 7.3426369302e+01 0.0000000000e+00 0.0000e+00 -1.0000e+00
       23  1    3    3    0    0 +1.0036931124e+02 -6.9078529646e+01 -4.9897088849e+01 1.6015848328e+02 9.1187600000e+01 0.0000e+00 1.0000e+00
       11  1    4    4    0    0 -3.8562232716e+01 +8.6074893921e+01 +1.6386396076e+02 1.8906964535e+02 0.0000000000e+00 0.0000e+00 1.0000e+00
       23  1    4    4    0    0 -1.4951407037e+01 -4.3922900791e+01 +5.9345211706e+01 1.1827847789e+02 9.1187600000e+01 0.0000e+00 -1.0000e+00
<mgrwt>
<rscale>  0 0.52662192E+03</rscale>
<asrwt>0</asrwt>
<pdfrwt beam="1">  1        2 0.51118193E-01 0.52662192E+03</pdfrwt>
<pdfrwt beam="2">  1       -2 0.32102264E-01 0.52662192E+03</pdfrwt>
<totfact> 0.88714813E+02</totfact>
</mgrwt>
</event>
<event>
 8      1 +1.4546000e-02 6.59618400e+02 7.81860800e-03 9.78889600e-02
        2 -1    0    0  501    0 +0.0000000000e+00 +0.0000000000e+00 +8.7866045132e+02 8.7866045132e+02 0.0000000000e+00 0.0000e+00 1.0000e+00
       -2 -1    0    0    0  501 -0.0000000000e+00 -0.0000000000e+00 -1.2379538887e+02 1.2379538887e+02 0.0000000000e+00 0.0000e+00 -1.0000e+00
     -556  2    1    2    0    0 +4.8499844703e+01 +1.4293374988e+02 +5.1511227662e+01 2.5580406681e+02 2.0000005558e+02 0.0000e+00 0.0000e+00
      556  2    1    2    0    0 -4.8499844703e+01 -1.4293374988e+02 +7.0335383479e+02 7.4665177337e+02 1.9999990496e+02 0.0000e+00 0.0000e+00
      -11  1    3    3    0    0 -1.2042871920e+01 +1.4054531941e+02 +2.7332186044e+01 1.4368390991e+02 0.0000000000e+00 0.0000e+00 -1.0000e+00
       23  1    3    3    0    0 +6.0542716623e+01 +2.3884304629e+00 +2.4179041618e+01 1.1212015690e+02 9.1187600000e+01 0.0000e+00 -1.0000e+00
       11  1    4    4    0    0 +1.1311285065e+01 -5.9827553802e+01 +4.9193577474e+01 7.8277004468e+01 0.0000000000e+00 0.0000e+00 1.0000e+00
       23  1    4    4    0    0 -5.9811129768e+01 -8.3106196075e+01 +6.5416025731e+02 6.6837476891e+02 9.1187600000e+01 0.0000e+00 1.0000e+00
<mgrwt>
<rscale>  0 0.65961841E+03</rscale>
<asrwt>0</asrwt>
<pdfrwt beam="1">  1        2 0.13517853E+00 0.65961841E+03</pdfrwt>
<pdfrwt beam="2">  1       -2 0.19045445E-01 0.65961841E+03</pdfrwt>
<totfact> 0.70937213E+02</totfact>
</mgrwt>
</event>
<event>
 8      1 +1.4546000e-02 8.01766700e+02 7.81860800e-03 9.55746300e-02
       -1 -1    0    0    0  501 -0.0000000000e+00 +0.0000000000e+00 +1.3087940787e+02 1.3087940787e+02 0.0000000000e+00 0.0000e+00 1.0000e+00
        1 -1    0    0  501    0 +0.0000000000e+00 -0.0000000000e+00 -1.2279048875e+03 1.2279048875e+03 0.0000000000e+00 0.0000e+00 -1.0000e+00
     -556  2    1    2    0    0 -1.1038854851e+02 +2.0746443653e+01 +8.6707011319e+00 2.2954555674e+02 1.9999983749e+02 0.0000e+00 0.0000e+00
      556  2    1    2    0    0 +1.1038854851e+02 -2.0746443653e+01 -1.1056961808e+03 1.1292387387e+03 2.0000009529e+02 0.0000e+00 0.0000e+00
      -11  1    3    3    0    0 +4.5325118312e+01 +1.5463388958e+01 -6.7406656944e+00 4.8362375066e+01 0.0000000000e+00 0.0000e+00 -1.0000e+00
       23  1    3    3    0    0 -1.5571366682e+02 +5.2830546953e+00 +1.5411366826e+01 1.8118318168e+02 9.1187600000e+01 0.0000e+00 1.0000e+00
       11  1    4    4    0    0 +7.6999620719e+01 +4.8262497975e+01 -7.1588744815e+02 7.2163221153e+02 0.0000000000e+00 0.0000e+00 1.0000e+00
       23  1    4    4    0    0 +3.3388927789e+01 -6.9008941628e+01 -3.8980873264e+02 4.0760652713e+02 9.1187600000e+01 0.0000e+00 0.0000e+00
<mgrwt>
<rscale>  0 0.80176671E+03</rscale>
<asrwt>0</asrwt>
<pdfrwt beam="2">  1        1 0.18890844E+00 0.80176671E+03</pdfrwt>
<pdfrwt beam="1">  1       -1 0.20135294E-01 0.80176671E+03</pdfrwt>
<totfact> 0.20853911E+02</totfact>
</mgrwt>
</event>
<event>
 8      1 +1.4546000e-02 6.99143700e+02 7.81860800e-03 9.71869800e-02
       -2 -1    0    0    0  501 -0.0000000000e+00 +0.0000000000e+00 +8.1473987780e+01 8.1473987780e+01 0.0000000000e+00 0.0000e+00 1.0000e+00
        2 -1    0    0  501    0 +0.0000000000e+00 -0.0000000000e+00 -1.4998712481e+03 1.4998712481e+03 0.0000000000e+00 0.0000e+00 -1.0000e+00
     -556  2    1    2    0    0 +1.5895877783e+01 +2.1524448879e+02 -1.1360657357e+03 1.1735536806e+03 2.0000004170e+02 0.0000e+00 0.0000e+00
      556  2    1    2    0    0 -1.5895877783e+01 -2.1524448879e+02 -2.8233152461e+02 4.0779155520e+02 1.9999998455e+02 0.0000e+00 0.0000e+00
      -11  1    3    3    0    0 -5.6634906534e+01 +1.3757064478e+01 -3.0458762017e+02 3.1011350796e+02 0.0000000000e+00 0.0000e+00 -1.0000e+00
       23  1    3    3    0    0 +7.2530784317e+01 +2.0148742432e+02 -8.3147811551e+02 8.6344017268e+02 9.1187600000e+01 0.0000e+00 -1.0000e+00
       11  1    4    4    0    0 +5.9663111793e+01 -1.7059593013e+01 -7.6365828972e+01 9.8399473866e+01 0.0000000000e+00 0.0000e+00 1.0000e+00
       23  1    4    4    0    0 -7.5558989577e+01 -1.9818489578e+02 -2.0596569564e+02 3.0939208134e+02 9.1187600000e+01 0.0000e+00 1.0000e+00
<mgrwt>
<rscale>  0 0.69914374E+03</rscale>
<asrwt>0</asrwt>
<pdfrwt beam="2">  1        2 0.23074941E+00 0.69914374E+03</pdfrwt>
<pdfrwt beam="1">  1       -2 0.12534460E-01 0.69914374E+03</pdfrwt>
<totfact> 0.61011059E+02</totfact>
</mgrwt>
</event>
<event>
 8      1 +1.4546000e-02 6.91459500e+02 7.81860800e-03 9.73195000e-02
        2 -1    0    0  501    0 +0.0000000000e+00 +0.0000000000e+00 +1.2519024319e+02 1.2519024319e+02 0.0000000000e+00 0.0000e+00 -1.0000e+00
       -2 -1    0    0    0  501 -0.0000000000e+00 -0.0000000000e+00 -9.5477943854e+02 9.5477943854e+02 0.0000000000e+00 0.0000e+00 1.0000e+00
     -556  2    1    2    0    0 +1.6272149215e+02 +1.3739973603e+02 -1.2607205808e+02 3.1819980369e+02 1.9999994942e+02 0.0000e+00 0.0000e+00
      556  2    1    2    0    0 -1.6272149215e+02 -1.3739973603e+02 -7.0351713727e+02 7.6176987805e+02 2.0000003300e+02 0.0000e+00 0.0000e+00
      -11  1    3    3    0    0 -1.6721135033e+00 -2.3810557816e+01 -5.5930621798e+01 6.0810961855e+01 0.0000000000e+00 0.0000e+00 -1.0000e+00
       23  1    3    3    0    0 +1.6439360565e+02 +1.6121029385e+02 -7.0141436284e+01 2.5738884183e+02 9.1187600000e+01 0.0000e+00 -1.0000e+00
       11  1    4    4    0    0 -7.9373051413e+01 -8.2126598039e+01 -1.3249532607e+02 1.7492818763e+02 0.0000000000e+00 0.0000e+00 1.0000e+00
       23  1    4    4    0    0 -8.3348440737e+01 -5.5273137991e+01 -5.7102181120e+02 5.8684169042e+02 9.1187600000e+01 0.0000e+00 0.0000e+00
<mgrwt>
<rscale>  0 0.69145953E+03</rscale>
<asrwt>0</asrwt>
<pdfrwt beam="1">  1        2 0.19260038E-01 0.69145953E+03</pdfrwt>
<pdfrwt beam="2">  1       -2 0.14688914E+00 0.69145953E+03</pdfrwt>
<totfact> 0.95326101E+01</totfact>
</mgrwt>
</event>
<event>
 8      1 +1.4546000e-02 6.33000100e+02 7.81860800e-03 9.83921200e-02
       -2 -1    0    0    0  501 -0.0000000000e+00 +0.0000000000e+00 +3.6479293780e+02 3.6479293780e+02 0.0000000000e+00 0.0000e+00 -1.0000e+00
        2 -1    0    0  501    0 +0.0000000000e+00 -0.0000000000e+00 -2.7460042767e+02 2.7460042767e+02 0.0000000000e+00 0.0000e+00 1.0000e+00
     -556  2    1    2    0    0 -5.1956881320e+01 +7.0153273865e+01 +2.7665213342e+02 3.5235975355e+02 1.9999998411e+02 0.0000e+00 0.0000e+00
      556  2    1    2    0    0 +5.1956881320e+01 -7.0153273865e+01 -1.8645962329e+02 2.8703361192e+02 2.0000025977e+02 0.0000e+00 0.0000e+00
      -11  1    3    3    0    0 +4.0783691620e+01 +5.9829525490e+01 +1.6666621727e+02 1.8171546330e+02 0.0000000000e+00 0.0000e+00 -1.0000e+00
       23  1    3    3    0    0 -9.2740572940e+01 +1.0323748375e+01 +1.0998591614e+02 1.7064429024e+02 9.1187600000e+01 0.0000e+00 -1.0000e+00
       11  1    4    4    0    0 +7.9046287830e+01 -2.1836822561e+01 -1.2489772391e+01 8.2952738674e+01 0.0000000000e+00 0.0000e+00 1.0000e+00
       23  1    4    4    0    0 -2.7089406509e+01 -4.8316451305e+01 -1.7396985089e+02 2.0408087325e+02 9.1187600000e+01 0.0000e+00 1.0000e+00
<mgrwt>
<rscale>  0 0.63300015E+03</rscale>
<asrwt>0</asrwt>
<pdfrwt beam="2">  1        2 0.42246220E-01 0.63300015E+03</pdfrwt>
<pdfrwt beam="1">  1       -2 0.56121990E-01 0.63300015E+03</pdfrwt>
<totfact> 0.36471425E+02</totfact>
</mgrwt>
</event>
<event>
 8      1 +1.4546000e-02 7.07428300e+02 7.81860800e-03 9.70461200e-02
        1 -1    0    0  501    0 +0.0000000000e+00 +0.0000000000e+00 +1.9115117291e+02 1.9115117291e+02 0.0000000000e+00 0.0000e+00 1.0000e+00
       -1 -1    0    0    0  501 -0.0000000000e+00 -0.0000000000e+00 -6.5452749925e+02 6.5452749925e+02 0.0000000000e+00 0.0000e+00 -1.0000e+00
     -556  2    1    2    0    0 +1.4124402763e+02 +9.5259345694e+01 -5.1480361509e+02 5.7796800674e+02 2.0000009106e+02 0.0000e+00 0.0000e+00
      556  2    1    2    0    0 -1.4124402763e+02 -9.5259345694e+01 +5.1427288751e+01 2.6771066541e+02 2.0000004016e+02 0.0000e+00 0.0000e+00
      -11  1    3    3    0    0 +7.7910925383e+01 +4.2970794140e+01 -6.1035098502e+01 1.0789756574e+02 0.0000000000e+00 0.0000e+00 -1.0000e+00
       23  1    3    3    0    0 +6.3333102246e+01 +5.2288551555e+01 -4.5376851659e+02 4.7007044100e+02 9.1187600000e+01 0.0000e+00 -1.0000e+00
       11  1    4    4    0    0 -5.0419616326e+01 +4.4988935815e+01 +3.6432955180e+01 7.6769149268e+01 0.0000000000e+00 0.0000e+00 1.0000e+00
       23  1    4    4    0    0 -9.0824411303e+01 -1.4024828151e+02 +1.4994333571e+01 1.9094151615e+02 9.1187600000e+01 0.0000e+00 1.0000e+00
<mgrwt>
<rscale>  0 0.70742830E+03</rscale>
<asrwt>0</asrwt>
<pdfrwt beam="1">  1        1 0.29407873E-01 0.70742830E+03</pdfrwt>
<pdfrwt beam="2">  1       -1 0.10069654E+00 0.70742830E+03</pdfrwt>
<totfact> 0.15036932E+02</totfact>
</mgrwt>
</event>
<event>
 8      1 +1.4546000e-02 4.68368100e+02 7.81860800e-03 1.02238200e-01
       -2 -1    0    0    0  501 -0.0000000000e+00 +0.0000000000e+00 +5.4030856257e+02 5.4030856257e+02 0.0000000000e+00 0.0000e+00 1.0000e+00
        2 -1    0    0  501    0 +0.0000000000e+00 -0.0000000000e+00 -1.0150158561e+02 1.0150158561e+02 0.0000000000e+00 0.0000e+00 -1.0000e+00
     -556  2    1    2    0    0 +4.9799233437e+01 +3.8023538068e+01 +7.6231127399e+01 2.2301779752e+02 2.0000000032e+02 0.0000e+00 0.0000e+00
      556  2    1    2    0    0 -4.9799233437e+01 -3.8023538068e+01 +3.6257584956e+02 4.1879235066e+02 2.0000008296e+02 0.0000e+00 0.0000e+00
      -11  1    3    3    0    0 -3.2884375479e+01 +5.1709237362e+00 -3.8972218580e+01 5.1253823506e+01 0.0000000000e+00 0.0000e+00 -1.0000e+00
       23  1    3    3    0    0 +8.2683608916e+01 +3.2852614332e+01 +1.1520334598e+02 1.7176397402e+02 9.1187600000e+01 0.0000e+00 -1.0000e+00
       11  1    4    4    0    0 -1.0830999513e+01 -9.3823571653e+01 +1.8830950962e+02 2.1066714163e+02 0.0000000000e+00 0.0000e+00 1.0000e+00
       23  1    4    4    0    0 -3.8968233924e+01 +5.5800033585e+01 +1.7426633994e+02 2.0812520903e+02 9.1187600000e+01 0.0000e+00 1.0000e+00
<mgrwt>
<rscale>  0 0.46836813E+03</rscale>
<asrwt>0</asrwt>
<pdfrwt beam="2">  1        2 0.15615629E-01 0.46836813E+03</pdfrwt>
<pdfrwt beam="1">  1       -2 0.83124393E-01 0.46836813E+03</pdfrwt>
<totfact> 0.48827418E+02</totfact>
</mgrwt>
</event>
<event>
 8      1 +1.4546000e-02 5.79995500e+02 7.81860800e-03 9.94780100e-02
       -1 -1    0    0    0  501 -0.0000000000e+00 +0.0000000000e+00 +1.5563133213e+03 1.5563133213e+03 0.0000000000e+00 0.0000e+00 1.0000e+00
        1 -1    0    0  501    0 +0.0000000000e+00 -0.0000000000e+00 -5.4037129034e+01 5.4037129034e+01 0.0000000000e+00 0.0000e+00 -1.0000e+00
     -556  2    1    2    0    0 -6.2194963873e+01 -6.5165655482e+01 +1.2778224175e+03 1.2965125871e+03 1.9999995406e+02 0.0000e+00 0.0000e+00
      556  2    1    2    0    0 +6.2194963873e+01 +6.5165655482e+01 +2.2445377484e+02 3.1383786332e+02 1.9999982807e+02 0.0000e+00 0.0000e+00
      -11  1    3    3    0    0 +2.2124183740e+01 +3.7391823484e+01 +1.2166834460e+02 1.2919293343e+02 0.0000000000e+00 0.0000e+00 -1.0000e+00
       23  1    3    3    0    0 -8.4319147613e+01 -1.0255747897e+02 +1.1561540729e+03 1.1673196536e+03 9.1187600000e+01 0.0000e+00 0.0000e+00
       11  1    4    4    0    0 -2.4390057902e+01 +6.4346956864e+01 +1.5636687199e+02 1.7083911858e+02 0.0000000000e+00 0.0000e+00 1.0000e+00
       23  1    4    4    0    0 +8.6585021775e+01 +8.1869861799e-01 +6.8086902853e+01 1.4299874474e+02 9.1187600000e+01 0.0000e+00 0.0000e+00
<mgrwt>
<rscale>  0 0.57999553E+03</rscale>
<asrwt>0</asrwt>
<pdfrwt beam="2">  1        1 0.83134056E-02 0.57999553E+03</pdfrwt>
<pdfrwt beam="1">  1       -1 0.23943278E+00 0.57999553E+03</pdfrwt>
<totfact> 0.73896170E+01</totfact>
</mgrwt>
</event>
<event>
 8      1 +1.4546000e-02 8.45972500e+02 7.81860800e-03 9.49575900e-02
        1 -1    0    0  501    0 +0.0000000000e+00 +0.0000000000e+00 +1.4307894325e+03 1.4307894325e+03 0.0000000000e+00 0.0000e+00 -1.0000e+00
       -1 -1    0    0    0  501 -0.0000000000e+00 -0.0000000000e+00 -1.2504800912e+02 1.2504800912e+02 0.0000000000e+00 0.0000e+00 1.0000e+00
     -556  2    1    2    0    0 -1.6997325090e+01 +2.5469885151e+02 +1.5340034987e+02 3.5873664959e+02 1.9999975599e+02 0.0000e+00 0.0000e+00
      556  2    1    2    0    0 +1.6997325090e+01 -2.5469885151e+02 +1.1523410735e+03 1.1971007920e+03 1.9999985643e+02 0.0000e+00 0.0000e+00
      -11  1    3    3    0    0 -6.5844907284e+01 +1.0623960560e+02 +1.2280183818e+02 1.7522185102e+02 0.0000000000e+00 0.0000e+00 -1.0000e+00
       23  1    3    3    0    0 +4.8847582194e+01 +1.4845924591e+02 +3.0598511683e+01 1.8351479857e+02 9.1187600000e+01 0.0000e+00 0.0000e+00
       11  1    4    4    0    0 -3.9296808604e+01 -1.7322860261e+02 +8.0989963047e+02 8.2915004635e+02 0.0000000000e+00 0.0000e+00 1.0000e+00
       23  1    4    4    0    0 +5.6294133694e+01 -8.1470248901e+01 +3.4244144305e+02 3.6795074569e+02 9.1187600000e+01 0.0000e+00 -1.0000e+00
<mgrwt>
<rscale>  0 0.84597251E+03</rscale>
<asrwt>0</asrwt>
<pdfrwt beam="1">  1        1 0.22012144E+00 0.84597251E+03</pdfrwt>
<pdfrwt beam="2">  1       -1 0.19238156E-01 0.84597251E+03</pdfrwt>
<totfact> 0.16135188E+02</totfact>
</mgrwt>
</event>
<event>
 8      1 +1.4546000e-02 1.91507500e+03 7.81860800e-03 8.64738900e-02
       -2 -1    0    0    0  501 -0.0000000000e+00 +0.0000000000e+00 +7.3185487245e+02 7.3185487245e+02 0.0000000000e+00 0.0000e+00 1.0000e+00
        2 -1    0    0  501    0 +0.0000000000e+00 -0.0000000000e+00 -1.2528139488e+03 1.2528139488e+03 0.0000000000e+00 0.0000e+00 -1.0000e+00
     -556  2    1    2    0    0 -7.5260536379e+02 +2.5129590607e+02 +2.5489885966e+02 8.5705184679e+02 1.9999993352e+02 0.0000e+00 0.0000e+00
      556  2    1    2    0    0 +7.5260536379e+02 -2.5129590607e+02 -7.7585793600e+02 1.1276169745e+03 2.0000009553e+02 0.0000e+00 0.0000e+00
      -11  1    3    3    0    0 -2.3892029029e+02 +1.5217538676e+02 +4.8943678963e+01 2.8746432328e+02 0.0000000000e+00 0.0000e+00 -1.0000e+00
       23  1    3    3    0    0 -5.1368507350e+02 +9.9120519309e+01 +2.0595518069e+02 5.6958752350e+02 9.1187600000e+01 0.0000e+00 0.0000e+00
       11  1    4    4    0    0 +3.0937458227e+02 -2.1140687304e+01 -3.1328398768e+02 4.4080201650e+02 0.0000000000e+00 0.0000e+00 1.0000e+00
       23  1    4    4    0    0 +4.4323078152e+02 -2.3015521876e+02 -4.6257394832e+02 6.8681495796e+02 9.1187600000e+01 0.0000e+00 0.0000e+00
<mgrwt>
<rscale>  0 0.19150749E+04</rscale>
<asrwt>0</asrwt>
<pdfrwt beam="2">  1        2 0.19274061E+00 0.19150749E+04</pdfrwt>
<pdfrwt beam="1">  1       -2 0.11259306E+00 0.19150749E+04</pdfrwt>
<totfact> 0.10235253E+01</totfact>
</mgrwt>
</event>
<event>
 8      1 +1.4546000e-02 1.03234200e+03 7.81860800e-03 9.27376700e-02
        4 -1    0    0  501    0 +0.0000000000e+00 +0.0000000000e+00 +3.2680292079e+02 3.2680292079e+02 0.0000000000e+00 0.0000e+00 1.0000e+00
       -4 -1    0    0    0  501 -0.0000000000e+00 -0.0000000000e+00 -8.1527021145e+02 8.1527021145e+02 0.0000000000e+00 0.0000e+00 -1.0000e+00
     -556  2    1    2    0    0 +3.9310295637e+02 -1.5726445238e+02 -3.9600498243e+00 4.6827101966e+02 2.0000005893e+02 0.0000e+00 0.0000e+00
      556  2    1    2    0    0 -3.9310295637e+02 +1.5726445238e+02 -4.8450724084e+02 6.7380211258e+02 1.9999994549e+02 0.0000e+00 0.0000e+00
      -11  1    3    3    0    0 +8.7421659062e+01 +1.4910767214e+00 +6.0296790452e+01 1.0620956982e+02 0.0000000000e+00 0.0000e+00 -1.0000e+00
       23  1    3    3    0    0 +3.0568129731e+02 -1.5875552910e+02 -6.4256840276e+01 3.6206144984e+02 9.1187600000e+01 0.0000e+00 0.0000e+00
       11  1    4    4    0    0 -2.1461063932e+01 -1.4350717384e+01 -1.0522834699e+02 1.0834909028e+02 0.0000000000e+00 0.0000e+00 1.0000e+00
       23  1    4    4    0    0 -3.7164189244e+02 +1.7161516976e+02 -3.7927889385e+02 5.6545302229e+02 9.1187600000e+01 0.0000e+00 0.0000e+00
<mgrwt>
<rscale>  0 0.10323424E+04</rscale>
<asrwt>0</asrwt>
<pdfrwt beam="1">  1        4 0.50277373E-01 0.10323424E+04</pdfrwt>
<pdfrwt beam="2">  1       -4 0.12542619E+00 0.10323424E+04</pdfrwt>
<totfact> 0.35818847E+00</totfact>
</mgrwt>
</event>
<event>
 8      1 +1.4546000e-02 6.83487200e+02 7.81860800e-03 9.74589600e-02
        2 -1    0    0  501    0 +0.0000000000e+00 +0.0000000000e+00 +8.4150500557e+02 8.4150500557e+02 0.0000000000e+00 0.0000e+00 -1.0000e+00
       -2 -1    0    0    0  501 -0.0000000000e+00 -0.0000000000e+00 -1.3878549993e+02 1.3878549993e+02 0.0000000000e+00 0.0000e+00 1.0000e+00
     -556  2    1    2    0    0 +6.5747991721e+01 +8.6992954690e+01 +7.1673612080e+02 7.5206460347e+02 1.9999982087e+02 0.0000e+00 0.0000e+00
      556  2    1    2    0    0 -6.5747991721e+01 -8.6992954690e+01 -1.4016615166e+01 2.2822590203e+02 2.0000006069e+02 0.0000e+00 0.0000e+00
      -11  1    3    3    0    0 +2.2300660819e+00 +7.2966089865e+01 +9.2385407721e+01 1.1774585778e+02 0.0000000000e+00 0.0000e+00 -1.0000e+00
       23  1    3    3    0    0 +6.3517925639e+01 +1.4026864826e+01 +6.2435071308e+02 6.3431874569e+02 9.1187600000e+01 0.0000e+00 -1.0000e+00
       11  1    4    4    0    0 +4.9887156591e+01 -1.4214426322e+01 -3.5070996267e+01 6.2615917206e+01 0.0000000000e+00 0.0000e+00 1.0000e+00
       23  1    4    4    0    0 -1.1563514831e+02 -7.2778528369e+01 +2.1054381101e+01 1.6560998483e+02 9.1187600000e+01 0.0000e+00 0.0000e+00
<mgrwt>
<rscale>  0 0.68348721E+03</rscale>
<asrwt>0</asrwt>
<pdfrwt beam="1">  1        2 0.12946231E+00 0.68348721E+03</pdfrwt>
<pdfrwt beam="2">  1       -2 0.21351616E-01 0.68348721E+03</pdfrwt>
<totfact> 0.61557603E+02</totfact>
</mgrwt>
</event>
<event>
 8      1 +1.4546000e-02 8.99666100e+02 7.81860800e-03 9.42599900e-02
       -1 -1    0    0    0  501 -0.0000000000e+00 +0.0000000000e+00 +1.8331841859e+02 1.8331841859e+02 0.0000000000e+00 0.0000e+00 1.0000e+00
        1 -1    0    0  501    0 +0.0000000000e+00 -0.0000000000e+00 -1.1038157442e+03 1.1038157442e+03 0.0000000000e+00 0.0000e+00 -1.0000e+00
     -556  2    1    2    0    0 -3.1447405111e+02 -2.5136310741e+02 -4.3663398385e+02 6.2667893721e+02 1.9999978475e+02 0.0000e+00 0.0000e+00
      556  2    1    2    0    0 +3.1447405111e+02 +2.5136310741e+02 -4.8386334176e+02 6.6045522557e+02 2.0000007724e+02 0.0000e+00 0.0000e+00
      -11  1    3    3    0    0 -1.6529793865e+01 -8.4520074846e+01 -3.8620068863e+01 9.4384251103e+01 0.0000000000e+00 0.0000e+00 -1.0000e+00
       23  1    3    3    0    0 -2.9794425725e+02 -1.6684303257e+02 -3.9801391498e+02 5.3229468610e+02 9.1187600000e+01 0.0000e+00 0.0000e+00
       11  1    4    4    0    0 +2.1921467008e+02 +8.3757276115e+01 -2.8118367115e+02 3.6624392118e+02 0.0000000000e+00 0.0000e+00 1.0000e+00
       23  1    4    4    0    0 +9.5259381031e+01 +1.6760583130e+02 -2.0267967061e+02 2.9421130439e+02 9.1187600000e+01 0.0000e+00 1.0000e+00
<mgrwt>
<rscale>  0 0.89966606E+03</rscale>
<asrwt>0</asrwt>
<pdfrwt beam="2">  1        1 0.16981781E+00 0.89966606E+03</pdfrwt>
<pdfrwt beam="1">  1       -1 0.28202833E-01 0.89966606E+03</pdfrwt>
<totfact> 0.14410633E+02</totfact>
</mgrwt>
</event>
<event>
 8      1 +1.4546000e-02 4.72327800e+02 7.81860800e-03 1.02126500e-01
        2 -1    0    0  501    0 +0.0000000000e+00 +0.0000000000e+00 +8.3308245075e+02 8.3308245075e+02 0.0000000000e+00 0.0000e+00 -1.0000e+00
       -2 -1    0    0    0  501 -0.0000000000e+00 -0.0000000000e+00 -6.6948226718e+01 6.6948226718e+01 0.0000000000e+00 0.0000e+00 1.0000e+00
     -556  2    1    2    0    0 -7.6438153656e+01 -9.9477925583e+01 +3.7185600490e+02 4.4047228498e+02 2.0000074110e+02 0.0000e+00 0.0000e+00
      556  2    1    2    0    0 +7.6438153656e+01 +9.9477925583e+01 +3.9427821913e+02 4.5955839249e+02 1.9999988253e+02 0.0000e+00 0.0000e+00
      -11  1    3    3    0    0 -6.0015723143e+00 +2.0361449288e+01 +2.0087244468e+02 2.0199095652e+02 0.0000000000e+00 0.0000e+00 -1.0000e+00
       23  1    3    3    0    0 -7.0436581342e+01 -1.1983937487e+02 +1.7098356022e+02 2.3848132845e+02 9.1187600000e+01 0.0000e+00 0.0000e+00
       11  1    4    4    0    0 +5.9009436023e+01 +8.6419076176e+01 +8.0360660497e+01 1.3194016076e+02 0.0000000000e+00 0.0000e+00 1.0000e+00
       23  1    4    4    0    0 +1.7428717633e+01 +1.3058849407e+01 +3.1391755864e+02 3.2761823173e+02 9.1187600000e+01 0.0000e+00 1.0000e+00
<mgrwt>
<rscale>  0 0.47232782E+03</rscale>
<asrwt>0</asrwt>
<pdfrwt beam="1">  1        2 0.12816652E+00 0.47232782E+03</pdfrwt>
<pdfrwt beam="2">  1       -2 0.10299728E-01 0.47232782E+03</pdfrwt>
<totfact> 0.21367071E+03</totfact>
</mgrwt>
</event>
<event>
 8      1 +1.4546000e-02 8.09232400e+02 7.81860800e-03 9.54674900e-02
       -1 -1    0    0    0  501 -0.0000000000e+00 +0.0000000000e+00 +2.1597853040e+02 2.1597853040e+02 0.0000000000e+00 0.0000e+00 1.0000e+00
        1 -1    0    0  501    0 +0.0000000000e+00 -0.0000000000e+00 -7.5801185437e+02 7.5801185437e+02 0.0000000000e+00 0.0000e+00 -1.0000e+00
     -556  2    1    2    0    0 -5.4317575353e+01 -1.3602166179e+02 -6.5590836008e+02 7.0119045603e+02 1.9999996835e+02 0.0000e+00 0.0000e+00
      556  2    1    2    0    0 +5.4317575353e+01 +1.3602166179e+02 +1.1387503611e+02 2.7279992874e+02 1.9999996450e+02 0.0000e+00 0.0000e+00
      -11  1    3    3    0    0 -2.2607777150e+01 -1.2204032450e+00 +1.9823383004e+00 2.2727310375e+01 0.0000000000e+00 0.0000e+00 -1.0000e+00
       23  1    3    3    0    0 -3.1709798203e+01 -1.3480125855e+02 -6.5789069838e+02 6.7846314566e+02 9.1187600000e+01 0.0000e+00 -1.0000e+00
       11  1    4    4    0    0 +1.1273585800e+01 +1.2714554229e+02 +1.0434404374e+01 1.2807013490e+02 0.0000000000e+00 0.0000e+00 1.0000e+00
       23  1    4    4    0    0 +4.3043989553e+01 +8.8761195092e+00 +1.0344063174e+02 1.4472979383e+02 9.1187600000e+01 0.0000e+00 1.0000e+00
<mgrwt>
<rscale>  0 0.80923244E+03</rscale>
<asrwt>0</asrwt>
<pdfrwt beam="2">  1        1 0.11661721E+00 0.80923244E+03</pdfrwt>
<pdfrwt beam="1">  1       -1 0.33227466E-01 0.80923244E+03</pdfrwt>
<totfact> 0.20710666E+02</totfact>
</mgrwt>
</event>
<event>
 8      1 +1.4546000e-02 5.93358400e+02 7.81860800e-03 9.91928200e-02
        2 -1    0    0  501    0 +0.0000000000e+00 +0.0000000000e+00 +1.2609824053e+03 1.2609824053e+03 0.0000000000e+00 0.0000e+00 -1.0000e+00
       -2 -1    0    0    0  501 -0.0000000000e+00 -0.0000000000e+00 -6.9801561778e+01 6.9801561778e+01 0.0000000000e+00 0.0000e+00 1.0000e+00
     -556  2    1    2    0    0 -1.7865901833e+02 +8.1868037637e+01 +3.7817596773e+02 4.7078492688e+02 1.9999991097e+02 0.0000e+00 0.0000e+00
      556  2    1    2    0    0 +1.7865901833e+02 -8.1868037637e+01 +8.1300487578e+02 8.5999904019e+02 2.0000000167e+02 0.0000e+00 0.0000e+00
      -11  1    3    3    0    0 -1.1887531954e+02 -3.0961773067e+01 +1.8202801763e+02 2.1960002775e+02 0.0000000000e+00 0.0000e+00 -1.0000e+00
       23  1    3    3    0    0 -5.9783698792e+01 +1.1282981070e+02 +1.9614795010e+02 2.5118489912e+02 9.1187600000e+01 0.0000e+00 0.0000e+00
       11  1    4    4    0    0 -1.7138341924e+01 -1.6982212962e+01 +1.0334189564e+01 2.6247167370e+01 0.0000000000e+00 0.0000e+00 1.0000e+00
       23  1    4    4    0    0 +1.9579736026e+02 -6.4885824675e+01 +8.0267068622e+02 8.3375187282e+02 9.1187600000e+01 0.0000e+00 0.0000e+00
<mgrwt>
<rscale>  0 0.59335838E+03</rscale>
<asrwt>0</asrwt>
<pdfrwt beam="1">  1        2 0.19399728E+00 0.59335838E+03</pdfrwt>
<pdfrwt beam="2">  1       -2 0.10738703E-01 0.59335838E+03</pdfrwt>
<totfact> 0.10786862E+03</totfact>
</mgrwt>
</event>
<event>
 8      1 +1.4546000e-02 6.65384100e+02 7.81860800e-03 9.77833300e-02
       -1 -1    0    0    0  501 -0.0000000000e+00 +0.0000000000e+00 +6.6474319326e+01 6.6474319326e+01 0.0000000000e+00 0.0000e+00 1.0000e+00
        1 -1    0    0  501    0 +0.0000000000e+00 -0.0000000000e+00 -1.6650642273e+03 1.6650642273e+03 0.0000000000e+00 0.0000e+00 -1.0000e+00
     -556  2    1    2    0    0 +1.8485201698e+02 -1.7947683072e+02 -9.6997533972e+02 1.0233447181e+03 2.0000012880e+02 0.0000e+00 0.0000e+00
      556  2    1    2    0    0 -1.8485201698e+02 +1.7947683072e+02 -6.2861456824e+02 7.0819382848e+02 2.0000005587e+02 0.0000e+00 0.0000e+00
      -11  1    3    3    0    0 +2.3118726215e+01 -6.5656055277e+01 -5.0641681823e+02 5.1117823397e+02 0.0000000000e+00 0.0000e+00 -1.0000e+00
       23  1    3    3    0    0 +1.6173329076e+02 -1.1382077544e+02 -4.6355852149e+02 5.1216648417e+02 9.1187600000e+01 0.0000e+00 0.0000e+00
       11  1    4    4    0    0 -5.7677514598e+01 +3.5324455892e+01 -3.5606265818e+02 3.6242948200e+02 0.0000000000e+00 0.0000e+00 1.0000e+00
       23  1    4    4    0    0 -1.2717450238e+02 +1.4415237482e+02 -2.7255191006e+02 3.4576434648e+02 9.1187600000e+01 0.0000e+00 0.0000e+00
<mgrwt>
<rscale>  0 0.66538413E+03</rscale>
<asrwt>0</asrwt>
<pdfrwt beam="2">  1        1 0.25616375E+00 0.66538413E+03</pdfrwt>
<pdfrwt beam="1">  1       -1 0.10226818E-01 0.66538413E+03</pdfrwt>
<totfact> 0.31503491E+02</totfact>
</mgrwt>
</event>
<event>
 8      1 +1.4546000e-02 4.78336200e+02 7.81860800e-03 1.01959300e-01
       -2 -1    0    0    0  501 -0.0000000000e+00 +0.0000000000e+00 +4.7561698964e+02 4.7561698964e+02 0.0000000000e+00 0.0000e+00 1.0000e+00
        2 -1    0    0  501    0 +0.0000000000e+00 -0.0000000000e+00 -1.2026771983e+02 1.2026771983e+02 0.0000000000e+00 0.0000e+00 -1.0000e+00
     -556  2    1    2    0    0 -1.1663406236e+02 +5.9931800956e+01 +1.8073926489e+02 2.9976982783e+02 1.9999985634e+02 0.0000e+00 0.0000e+00
      556  2    1    2    0    0 +1.1663406236e+02 -5.9931800956e+01 +1.7461000492e+02 2.9611488164e+02 2.0000011011e+02 0.0000e+00 0.0000e+00
      -11  1    3    3    0    0 -1.3395473581e+01 -4.4866483885e+01 +9.6543533490e+01 1.0729908642e+02 0.0000000000e+00 0.0000e+00 -1.0000e+00
       23  1    3    3    0    0 -1.0323858878e+02 +1.0479828484e+02 +8.4195731399e+01 1.9247074141e+02 9.1187600000e+01 0.0000e+00 0.0000e+00
       11  1    4    4    0    0 -8.7792019541e+00 +2.6813835326e+01 +9.9138033509e+01 1.0307475850e+02 0.0000000000e+00 0.0000e+00 1.0000e+00
       23  1    4    4    0    0 +1.2541326432e+02 -8.6745636282e+01 +7.5471971406e+01 1.9304012314e+02 9.1187600000e+01 0.0000e+00 0.0000e+00
<mgrwt>
<rscale>  0 0.47833616E+03</rscale>
<asrwt>0</asrwt>
<pdfrwt beam="2">  1        2 0.18502726E-01 0.47833616E+03</pdfrwt>
<pdfrwt beam="1">  1       -2 0.73171844E-01 0.47833616E+03</pdfrwt>
<totfact> 0.52961769E+02</totfact>
</mgrwt>
</event>
<event>
 8      1 +1.4546000e-02 6.39625600e+02 7.81860800e-03 9.82644300e-02
       -1 -1    0    0    0  501 -0.0000000000e+00 +0.0000000000e+00 +1.9162759879e+02 1.9162759879e+02 0.0000000000e+00 0.0000e+00 -1.0000e+00
        1 -1    0    0  501    0 +0.0000000000e+00 -0.0000000000e+00 -5.3374477155e+02 5.3374477155e+02 0.0000000000e+00 0.0000e+00 1.0000e+00
     -556  2    1    2    0    0 -1.7790945044e+02 -1.4564471461e+02 -2.8110363002e+02 4.1458826310e+02 2.0000005411e+02 0.0000e+00 0.0000e+00
      556  2    1    2    0    0 +1.7790945044e+02 +1.4564471461e+02 -6.1013542745e+01 3.1078410724e+02 1.9999988366e+02 0.0000e+00 0.0000e+00
      -11  1    3    3    0    0 -3.9411301265e+01 -1.2008260729e+02 -6.8498024695e+01 1.4375347866e+02 0.0000000000e+00 0.0000e+00 -1.0000e+00
       23  1    3    3    0    0 -1.3849814917e+02 -2.5562107325e+01 -2.1260560532e+02 2.7083478444e+02 9.1187600000e+01 0.0000e+00 0.0000e+00
       11  1    4    4    0    0 -3.3873601244e+01 +6.5614770850e+00 -1.4907919778e+01 3.7586166536e+01 0.0000000000e+00 0.0000e+00 1.0000e+00
       23  1    4    4    0    0 +2.1178305168e+02 +1.3908323753e+02 -4.6105622966e+01 2.7319794070e+02 9.1187600000e+01 0.0000e+00 0.0000e+00
<mgrwt>
<rscale>  0 0.63962561E+03</rscale>
<asrwt>0</asrwt>
<pdfrwt beam="2">  1        1 0.82114580E-01 0.63962561E+03</pdfrwt>
<pdfrwt beam="1">  1       -1 0.29481169E-01 0.63962561E+03</pdfrwt>
<totfact> 0.43048717E+02</totfact>
</mgrwt>
</event>
<event>
 8      1 +1.4546000e-02 5.65816300e+02 7.81860800e-03 9.97897900e-02
        1 -1    0    0  501    0 +0.0000000000e+00 +0.0000000000e+00 +8.6327170626e+02 8.6327170626e+02 0.0000000000e+00 0.0000e+00 -1.0000e+00
       -1 -1    0    0    0  501 -0.0000000000e+00 -0.0000000000e+00 -9.2713607741e+01 9.2713607741e+01 0.0000000000e+00 0.0000e+00 1.0000e+00
     -556  2    1    2    0    0 +1.2544235624e+02 -5.3583770144e+00 +1.2205048524e+02 2.6582109731e+02 2.0000009472e+02 0.0000e+00 0.0000e+00
      556  2    1    2    0    0 -1.2544235624e+02 +5.3583770144e+00 +6.4850761328e+02 6.9016421669e+02 2.0000006142e+02 0.0000e+00 0.0000e+00
      -11  1    3    3    0    0 +1.1021367011e+02 -3.4355164152e+01 +1.2331739959e+02 1.6892161325e+02 0.0000000000e+00 0.0000e+00 -1.0000e+00
       23  1    3    3    0    0 +1.5228686131e+01 +2.8996787138e+01 -1.2669143463e+00 9.6899484061e+01 9.1187600000e+01 0.0000e+00 0.0000e+00
       11  1    4    4    0    0 +1.5356275460e+01 -5.1528629710e+01 +2.2029995115e+02 2.2676658341e+02 0.0000000000e+00 0.0000e+00 1.0000e+00
       23  1    4    4    0    0 -1.4079863170e+02 +5.6887006724e+01 +4.2820766213e+02 4.6339763328e+02 9.1187600000e+01 0.0000e+00 0.0000e+00
<mgrwt>
<rscale>  0 0.56581635E+03</rscale>
<asrwt>0</asrwt>
<pdfrwt beam="1">  1        1 0.13281103E+00 0.56581635E+03</pdfrwt>
<pdfrwt beam="2">  1       -1 0.14263633E-01 0.56581635E+03</pdfrwt>
<totfact> 0.70524744E+02</totfact>
</mgrwt>
</event>
<event>
 8      1 +1.4546000e-02 5.56673500e+02 7.81860800e-03 9.99961000e-02
        2 -1    0    0  501    0 +0.0000000000e+00 +0.0000000000e+00 +1.2970329926e+03 1.2970329926e+03 0.0000000000e+00 0.0000e+00 -1.0000e+00
       -2 -1    0    0    0  501 -0.0000000000e+00 -0.0000000000e+00 -5.9729671067e+01 5.9729671067e+01 0.0000000000e+00 0.0000e+00 1.0000e+00
     -556  2    1    2    0    0 +9.4184574677e+01 -2.4524966835e+00 +1.0307926062e+03 1.0542343339e+03 1.9999971208e+02 0.0000e+00 0.0000e+00
      556  2    1    2    0    0 -9.4184574677e+01 +2.4524966835e+00 +2.0651071529e+02 3.0252832978e+02 1.9999991485e+02 0.0000e+00 0.0000e+00
      -11  1    3    3    0    0 +1.4277388224e+01 +3.7290282762e+01 +6.7631600700e+02 6.7749372715e+02 0.0000000000e+00 0.0000e+00 -1.0000e+00
       23  1    3    3    0    0 +7.9907186453e+01 -3.9742779446e+01 +3.5447659921e+02 3.7674060671e+02 9.1187600000e+01 0.0000e+00 1.0000e+00
       11  1    4    4    0    0 -3.4660523132e+01 +7.3977807179e+01 +3.9592201568e+01 9.0783314787e+01 0.0000000000e+00 0.0000e+00 1.0000e+00
       23  1    4    4    0    0 -5.9524051545e+01 -7.1525310496e+01 +1.6691851373e+02 2.1174501499e+02 9.1187600000e+01 0.0000e+00 1.0000e+00
<mgrwt>
<rscale>  0 0.55667353E+03</rscale>
<asrwt>0</asrwt>
<pdfrwt beam="1">  1        2 0.19954352E+00 0.55667353E+03</pdfrwt>
<pdfrwt beam="2">  1       -2 0.91891811E-02 0.55667353E+03</pdfrwt>
<totfact> 0.13253777E+03</totfact>
</mgrwt>
</event>
<event>
 8      1 +1.4546000e-02 5.15562700e+02 7.81860800e-03 1.00979500e-01
       -3 -1    0    0    0  501 -0.0000000000e+00 +0.0000000000e+00 +4.2030676156e+01 4.2030676156e+01 0.0000000000e+00 0.0000e+00 1.0000e+00
        3 -1    0    0  501    0 +0.0000000000e+00 -0.0000000000e+00 -1.5810172519e+03 1.5810172519e+03 0.0000000000e+00 0.0000e+00 -1.0000e+00
     -556  2    1    2    0    0 +8.8710388453e+01 -1.2632689212e+02 -6.0825412187e+02 6.5863572260e+02 1.9999980406e+02 0.0000e+00 0.0000e+00
      556  2    1    2    0    0 -8.8710388453e+01 +1.2632689212e+02 -9.3073245390e+02 9.6441220548e+02 1.9999996161e+02 0.0000e+00 0.0000e+00
      -11  1    3    3    0    0 +2.1716279344e+01 -4.9424769586e+00 +5.4192868696e+00 2.2921464552e+01 0.0000000000e+00 0.0000e+00 -1.0000e+00
       23  1    3    3    0    0 +6.6994109109e+01 -1.2138441516e+02 -6.1367340874e+02 6.3571425805e+02 9.1187600000e+01 0.0000e+00 0.0000e+00
       11  1    4    4    0    0 +1.7273981803e+00 -2.6909164459e+01 -2.4654124818e+01 3.6536459967e+01 0.0000000000e+00 0.0000e+00 1.0000e+00
       23  1    4    4    0    0 -9.0437786633e+01 +1.5323605658e+02 -9.0607832909e+02 9.2787574552e+02 9.1187600000e+01 0.0000e+00 0.0000e+00
<mgrwt>
<rscale>  0 0.51556270E+03</rscale>
<asrwt>0</asrwt>
<pdfrwt beam="2">  1        3 0.24323337E+00 0.51556270E+03</pdfrwt>
<pdfrwt beam="1">  1       -3 0.64662593E-02 0.51556270E+03</pdfrwt>
<totfact> 0.34614987E+01</totfact>
</mgrwt>
</event>
<event>
 8      1 +1.4546000e-02 4.85387000e+02 7.81860800e-03 1.01766500e-01
        2 -1    0    0  501    0 +0.0000000000e+00 +0.0000000000e+00 +1.3670281188e+03 1.3670281188e+03 0.0000000000e+00 0.0000e+00 -1.0000e+00
       -2 -1    0    0    0  501 -0.0000000000e+00 -0.0000000000e+00 -4.3086261608e+01 4.3086261608e+01 0.0000000000e+00 0.0000e+00 1.0000e+00
     -556  2    1    2    0    0 +7.3227768137e+01 +9.4792851444e+01 +8.5797881619e+02 8.8908697589e+02 2.0000002739e+02 0.0000e+00 0.0000e+00
      556  2    1    2    0    0 -7.3227768137e+01 -9.4792851444e+01 +4.6596304100e+02 5.2102740452e+02 2.0000002492e+02 0.0000e+00 0.0000e+00
      -11  1    3    3    0    0 -2.4723973327e+01 +9.3727874417e+01 +2.9946566085e+02 3.1476319882e+02 0.0000000000e+00 0.0000e+00 -1.0000e+00
       23  1    3    3    0    0 +9.7951741464e+01 +1.0649770262e+00 +5.5851315533e+02 5.7432377707e+02 9.1187600000e+01 0.0000e+00 -1.0000e+00
       11  1    4    4    0    0 -2.8220956701e+01 -1.2158452154e+02 +2.9488982839e+02 3.2021747167e+02 0.0000000000e+00 0.0000e+00 1.0000e+00
       23  1    4    4    0    0 -4.5006811436e+01 +2.6791670101e+01 +1.7107321261e+02 2.0080993285e+02 9.1187600000e+01 0.0000e+00 1.0000e+00
<mgrwt>
<rscale>  0 0.48538698E+03</rscale>
<asrwt>0</asrwt>
<pdfrwt beam="1">  1        2 0.21031199E+00 0.48538698E+03</pdfrwt>
<pdfrwt beam="2">  1       -2 0.66286567E-02 0.48538698E+03</pdfrwt>
<totfact> 0.20361825E+03</totfact>
</mgrwt>
</event>
<event>
 8      1 +1.4546000e-02 5.79887200e+02 7.81860800e-03 9.94803500e-02
       -2 -1    0    0    0  501 -0.0000000000e+00 +0.0000000000e+00 +9.9018767814e+02 9.9018767814e+02 0.0000000000e+00 0.0000e+00 1.0000e+00
        2 -1    0    0  501    0 +0.0000000000e+00 -0.0000000000e+00 -8.4900365786e+01 8.4900365786e+01 0.0000000000e+00 0.0000e+00 -1.0000e+00
     -556  2    1    2    0    0 +1.4418977991e+02 -4.9479279101e+01 +7.2020818665e+02 7.6284906856e+02 1.9999994397e+02 0.0000e+00 0.0000e+00
      556  2    1    2    0    0 -1.4418977991e+02 +4.9479279101e+01 +1.8507912570e+02 3.1223897537e+02 2.0000000820e+02 0.0000e+00 0.0000e+00
      -11  1    3    3    0    0 +9.1313493578e+01 -4.2574864020e-01 +1.1637027680e+02 1.4792017000e+02 0.0000000000e+00 0.0000e+00 -1.0000e+00
       23  1    3    3    0    0 +5.2876286327e+01 -4.9053530461e+01 +6.0383790986e+02 6.1492889856e+02 9.1187600000e+01 0.0000e+00 0.0000e+00
       11  1    4    4    0    0 +2.0708437109e+01 +4.2319438517e+01 +8.8774666990e+01 1.0050231710e+02 0.0000000000e+00 0.0000e+00 1.0000e+00
       23  1    4    4    0    0 -1.6489821701e+02 +7.1598405833e+00 +9.6304458711e+01 2.1173665826e+02 9.1187600000e+01 0.0000e+00 0.0000e+00
<mgrwt>
<rscale>  0 0.57988722E+03</rscale>
<asrwt>0</asrwt>
<pdfrwt beam="2">  1        2 0.13061595E-01 0.57988722E+03</pdfrwt>
<pdfrwt beam="1">  1       -2 0.15233656E+00 0.57988722E+03</pdfrwt>
<totfact> 0.13903553E+02</totfact>
</mgrwt>
</event>
<event>
 8      1 +1.4546000e-02 6.40341000e+02 7.81860800e-03 9.82507400e-02
        4 -1    0    0  501    0 +0.0000000000e+00 +0.0000000000e+00 +3.0639275079e+02 3.0639275079e+02 0.0000000000e+00 0.0000e+00 -1.0000e+00
       -4 -1    0    0    0  501 -0.0000000000e+00 -0.0000000000e+00 -3.3456775162e+02 3.3456775162e+02 0.0000000000e+00 0.0000e+00 1.0000e+00
     -556  2    1    2    0    0 -1.8766734559e+02 -1.4368409080e+02 -9.5682878950e+01 3.2406694617e+02 2.0000005431e+02 0.0000e+00 0.0000e+00
      556  2    1    2    0    0 +1.8766734559e+02 +1.4368409080e+02 +6.7507878113e+01 3.1689355624e+02 2.0000015458e+02 0.0000e+00 0.0000e+00
      -11  1    3    3    0    0 -9.8831154888e+01 -5.8086709255e+01 +3.7807824202e+01 1.2071078883e+02 0.0000000000e+00 0.0000e+00 -1.0000e+00
       23  1    3    3    0    0 -8.8836190705e+01 -8.5597381541e+01 -1.3349070315e+02 2.0335615734e+02 9.1187600000e+01 0.0000e+00 0.0000e+00
       11  1    4    4    0    0 +7.5659589005e+01 -2.1506389459e+01 -1.9181116677e+01 8.0961802308e+01 0.0000000000e+00 0.0000e+00 1.0000e+00
       23  1    4    4    0    0 +1.1200775659e+02 +1.6519048026e+02 +8.6688994789e+01 2.3593175393e+02 9.1187600000e+01 0.0000e+00 0.0000e+00
<mgrwt>
<rscale>  0 0.64034095E+03</rscale>
<asrwt>0</asrwt>
<pdfrwt beam="1">  1        4 0.47137346E-01 0.64034095E+03</pdfrwt>
<pdfrwt beam="2">  1       -4 0.51471962E-01 0.64034095E+03</pdfrwt>
<totfact> 0.31308739E+01</totfact>
</mgrwt>
</event>
<event>
 8      1 +1.4546000e-02 6.15185000e+02 7.81860800e-03 9.87439300e-02
        2 -1    0    0  501    0 +0.0000000000e+00 +0.0000000000e+00 +4.4523001845e+02 4.4523001845e+02 0.0000000000e+00 0.0000e+00 -1.0000e+00
       -2 -1    0    0    0  501 -0.0000000000e+00 -0.0000000000e+00 -2.1250394384e+02 2.1250394384e+02 0.0000000000e+00 0.0000e+00 1.0000e+00
     -556  2    1    2    0    0 +1.0801761373e+02 -1.3842684494e+02 +2.8124785841e+02 3.8720824392e+02 2.0000017504e+02 0.0000e+00 0.0000e+00
      556  2    1    2    0    0 -1.0801761373e+02 +1.3842684494e+02 -4.8521783796e+01 2.7052571837e+02 2.0000001130e+02 0.0000e+00 0.0000e+00
      -11  1    3    3    0    0 +1.2512146402e+02 -6.4711791425e+01 +1.0888556612e+02 1.7804230738e+02 0.0000000000e+00 0.0000e+00 -1.0000e+00
       23  1    3    3    0    0 -1.7103850285e+01 -7.3715053515e+01 +1.7236229229e+02 2.0916593654e+02 9.1187600000e+01 0.0000e+00 -1.0000e+00
       11  1    4    4    0    0 -8.6510748189e+00 +1.0476596610e+02 -7.4854399581e+01 1.2905010610e+02 0.0000000000e+00 0.0000e+00 1.0000e+00
       23  1    4    4    0    0 -9.9366538914e+01 +3.3660878843e+01 +2.6332615785e+01 1.4147561227e+02 9.1187600000e+01 0.0000e+00 -1.0000e+00
<mgrwt>
<rscale>  0 0.61518496E+03</rscale>
<asrwt>0</asrwt>
<pdfrwt beam="1">  1        2 0.68496926E-01 0.61518496E+03</pdfrwt>
<pdfrwt beam="2">  1       -2 0.32692915E-01 0.61518496E+03</pdfrwt>
<totfact> 0.61800795E+02</totfact>
</mgrwt>
</event>
<event>
 8      1 +1.4546000e-02 5.00812000e+02 7.81860800e-03 1.01356700e-01
        1 -1    0    0  501    0 +0.0000000000e+00 +0.0000000000e+00 +1.3938679569e+02 1.3938679569e+02 0.0000000000e+00 0.0000e+00 -1.0000e+00
       -1 -1    0    0    0  501 -0.0000000000e+00 -0.0000000000e+00 -4.4985016434e+02 4.4985016434e+02 0.0000000000e+00 0.0000e+00 1.0000e+00
     -556  2    1    2    0    0 -6.3174007816e+01 -8.4767389195e+00 -3.1586751779e+02 3.7925593462e+02 1.9999991195e+02 0.0000e+00 0.0000e+00
      556  2    1    2    0    0 +6.3174007816e+01 +8.4767389195e+00 +5.4041491485e+00 2.0998102541e+02 2.0000003959e+02 0.0000e+00 0.0000e+00
      -11  1    3    3    0    0 -9.5194612908e+01 -1.2705957012e+01 -8.2413118782e+01 1.2655187797e+02 0.0000000000e+00 0.0000e+00 -1.0000e+00
       23  1    3    3    0    0 +3.2020605092e+01 +4.2292180924e+00 -2.3345439901e+02 2.5270405665e+02 9.1187600000e+01 0.0000e+00 0.0000e+00
       11  1    4    4    0    0 -3.1576781007e+01 +4.9589908933e+01 -3.2376493776e+01 6.7115493859e+01 0.0000000000e+00 0.0000e+00 1.0000e+00
       23  1    4    4    0    0 +9.4750788824e+01 -4.1113170013e+01 +3.7780642925e+01 1.4286553155e+02 9.1187600000e+01 0.0000e+00 0.0000e+00
<mgrwt>
<rscale>  0 0.50081203E+03</rscale>
<asrwt>0</asrwt>
<pdfrwt beam="1">  1        1 0.21444122E-01 0.50081203E+03</pdfrwt>
<pdfrwt beam="2">  1       -1 0.69207718E-01 0.50081203E+03</pdfrwt>
<totfact> 0.51111561E+02</totfact>
</mgrwt>
</event>
<event>
 8      1 +1.4546000e-02 5.00610000e+02 7.81860800e-03 1.01362000e-01
        1 -1    0    0  501    0 +0.0000000000e+00 +0.0000000000e+00 +3.1169713710e+02 3.1169713710e+02 0.0000000000e+00 0.0000e+00 -1.0000e+00
       -1 -1    0    0    0  501 -0.0000000000e+00 -0.0000000000e+00 -2.0100470344e+02 2.0100470344e+02 0.0000000000e+00 0.0000e+00 1.0000e+00
     -556  2    1    2    0    0 +1.3720941531e+02 +2.2644601473e+01 -3.6063320093e+00 2.4362294720e+02 1.9999983287e+02 0.0000e+00 0.0000e+00
      556  2    1    2    0    0 -1.3720941531e+02 -2.2644601473e+01 +1.1429876567e+02 2.6907889335e+02 2.0000010346e+02 0.0000e+00 0.0000e+00
      -11  1    3    3    0    0 +9.9860937381e+01 +5.0770609474e+00 -7.1282740791e+01 1.2279744499e+02 0.0000000000e+00 0.0000e+00 -1.0000e+00
       23  1    3    3    0    0 +3.7348477929e+01 +1.7567540526e+01 +6.7676408782e+01 1.2082550221e+02 9.1187600000e+01 0.0000e+00 0.0000e+00
       11  1    4    4    0    0 -2.5349673087e+00 +3.9013479476e+01 -2.4855490208e+01 4.6327886133e+01 0.0000000000e+00 0.0000e+00 1.0000e+00
       23  1    4    4    0    0 -1.3467444800e+02 -6.1658080949e+01 +1.3915425588e+02 2.2275100721e+02 9.1187600000e+01 0.0000e+00 0.0000e+00
<mgrwt>
<rscale>  0 0.50060999E+03</rscale>
<asrwt>0</asrwt>
<pdfrwt beam="1">  1        1 0.47953406E-01 0.50060999E+03</pdfrwt>
<pdfrwt beam="2">  1       -1 0.30923800E-01 0.50060999E+03</pdfrwt>
<totfact> 0.81098893E+02</totfact>
</mgrwt>
</event>
<event>
 8      1 +1.4546000e-02 6.39008800e+02 7.81860800e-03 9.82762500e-02
       -2 -1    0    0    0  501 -0.0000000000e+00 +0.0000000000e+00 +4.4806539306e+01 4.4806539306e+01 0.0000000000e+00 0.0000e+00 1.0000e+00
        2 -1    0    0  501    0 +0.0000000000e+00 -0.0000000000e+00 -2.2783073327e+03 2.2783073327e+03 0.0000000000e+00 0.0000e+00 -1.0000e+00
     -556  2    1    2    0    0 +1.3234727992e+02 -2.7001220742e+01 -3.5556597349e+02 4.2973486579e+02 2.0000006236e+02 0.0000e+00 0.0000e+00
      556  2    1    2    0    0 -1.3234727992e+02 +2.7001220742e+01 -1.8779348199e+03 1.8933790062e+03 2.0000001243e+02 0.0000e+00 0.0000e+00
      -11  1    3    3    0    0 +1.1668913054e+02 -7.1323117923e+01 -1.7549320950e+02 2.2248866694e+02 0.0000000000e+00 0.0000e+00 -1.0000e+00
       23  1    3    3    0    0 +1.5658149382e+01 +4.4321897182e+01 -1.8007276399e+02 2.0724619885e+02 9.1187600000e+01 0.0000e+00 0.0000e+00
       11  1    4    4    0    0 -4.1561648708e+01 -6.9111481832e+01 -6.5182149497e+02 6.5679146529e+02 0.0000000000e+00 0.0000e+00 1.0000e+00
       23  1    4    4    0    0 -9.0785631210e+01 +9.6112702573e+01 -1.2261133249e+03 1.2365875409e+03 9.1187600000e+01 0.0000e+00 0.0000e+00
<mgrwt>
<rscale>  0 0.63900882E+03</rscale>
<asrwt>0</asrwt>
<pdfrwt beam="2">  1        2 0.35050877E+00 0.63900882E+03</pdfrwt>
<pdfrwt beam="1">  1       -2 0.68933147E-02 0.63900882E+03</pdfrwt>
<totfact> 0.60501773E+02</totfact>
</mgrwt>
</event>
<event>
 8      1 +1.4546000e-02 7.38125400e+02 7.81860800e-03 9.65416600e-02
       -2 -1    0    0    0  501 -0.0000000000e+00 +0.0000000000e+00 +2.3690451900e+02 2.3690451900e+02 0.0000000000e+00 0.0000e+00 1.0000e+00
        2 -1    0    0  501    0 +0.0000000000e+00 -0.0000000000e+00 -5.7494586481e+02 5.7494586481e+02 0.0000000000e+00 0.0000e+00 -1.0000e+00
     -556  2    1    2    0    0 +1.9987441874e+02 +9.1712457062e+01 +7.1565173955e+01 3.0574921379e+02 2.0000012391e+02 0.0000e+00 0.0000e+00
      556  2    1    2    0    0 -1.9987441874e+02 -9.1712457062e+01 -4.0960651977e+02 5.0610117002e+02 1.9999983803e+02 0.0000e+00 0.0000e+00
      -11  1    3    3    0    0 +7.8892081390e+01 +5.9657207479e+01 -4.8160123381e+01 1.1001063764e+02 0.0000000000e+00 0.0000e+00 -1.0000e+00
       23  1    3    3    0    0 +1.2098233735e+02 +3.2055249582e+01 +1.1972529734e+02 1.9573857615e+02 9.1187600000e+01 0.0000e+00 0.0000e+00
       11  1    4    4    0    0 -4.2597030261e+01 +4.0416704668e+01 -1.5892092168e+02 1.6942218376e+02 0.0000000000e+00 0.0000e+00 1.0000e+00
       23  1    4    4    0    0 -1.5727738848e+02 -1.3212916173e+02 -2.5068559809e+02 3.3667898626e+02 9.1187600000e+01 0.0000e+00 0.0000e+00
<mgrwt>
<rscale>  0 0.73812539E+03</rscale>
<asrwt>0</asrwt>
<pdfrwt beam="2">  1        2 0.88453210E-01 0.73812539E+03</pdfrwt>
<pdfrwt beam="1">  1       -2 0.36446849E-01 0.73812539E+03</pdfrwt>
<totfact> 0.37255835E+02</totfact>
</mgrwt>
</event>
<event>
 8      1 +1.4546000e-02 5.34486200e+02 7.81860800e-03 1.00515000e-01
        1 -1    0    0  501    0 +0.0000000000e+00 +0.0000000000e+00 +1.1348352325e+02 1.1348352325e+02 0.0000000000e+00 0.0000e+00 -1.0000e+00
       -1 -1    0    0    0  501 -0.0000000000e+00 -0.0000000000e+00 -6.2933258840e+02 6.2933258840e+02 0.0000000000e+00 0.0000e+00 1.0000e+00
     -556  2    1    2    0    0 +4.4893017077e+01 +8.1059573373e+01 -4.6792687597e+02 5.1724426126e+02 2.0000006784e+02 0.0000e+00 0.0000e+00
      556  2    1    2    0    0 -4.4893017077e+01 -8.1059573373e+01 -4.7922189184e+01 2.2557185040e+02 2.0000021514e+02 0.0000e+00 0.0000e+00
      -11  1    3    3    0    0 +1.5582893219e+01 +3.8433094818e+01 -3.7458376255e+02 3.7687255738e+02 0.0000000000e+00 0.0000e+00 -1.0000e+00
       23  1    3    3    0    0 +2.9310123858e+01 +4.2626478555e+01 -9.3343113412e+01 1.4037170388e+02 9.1187600000e+01 0.0000e+00 1.0000e+00
       11  1    4    4    0    0 +1.1867970906e+01 -9.6990921727e+01 +1.6818742982e+01 9.9151186308e+01 0.0000000000e+00 0.0000e+00 1.0000e+00
       23  1    4    4    0    0 -5.6760987983e+01 +1.5931348353e+01 -6.4740932166e+01 1.2642066409e+02 9.1187600000e+01 0.0000e+00 0.0000e+00
<mgrwt>
<rscale>  0 0.53448622E+03</rscale>
<asrwt>0</asrwt>
<pdfrwt beam="1">  1        1 0.17459004E-01 0.53448622E+03</pdfrwt>
<pdfrwt beam="2">  1       -1 0.96820398E-01 0.53448622E+03</pdfrwt>
<totfact> 0.32810016E+02</totfact>
</mgrwt>
</event>
<event>
 8      1 +1.4546000e-02 5.21171000e+02 7.81860800e-03 1.00839600e-01
        1 -1    0    0  501    0 +0.0000000000e+00 +0.0000000000e+00 +4.2538099608e+02 4.2538099608e+02 0.0000000000e+00 0.0000e+00 -1.0000e+00
       -1 -1    0    0    0  501 -0.0000000000e+00 -0.0000000000e+00 -1.5963292846e+02 1.5963292846e+02 0.0000000000e+00 0.0000e+00 1.0000e+00
     -556  2    1    2    0    0 +6.5098834392e+01 -1.4523526081e+02 +7.5928002362e+01 2.6663872640e+02 2.0000002413e+02 0.0000e+00 0.0000e+00
      556  2    1    2    0    0 -6.5098834392e+01 +1.4523526081e+02 +1.8982006526e+02 3.1837519814e+02 1.9999992599e+02 0.0000e+00 0.0000e+00
      -11  1    3    3    0    0 +7.3919177449e+01 -1.9300005270e+01 +8.0311518234e+01 1.1084437270e+02 0.0000000000e+00 0.0000e+00 -1.0000e+00
       23  1    3    3    0    0 -8.8203430568e+00 -1.2593525554e+02 -4.3835158718e+00 1.5579435370e+02 9.1187600000e+01 0.0000e+00 0.0000e+00
       11  1    4    4    0    0 +8.3176766922e-01 -3.8123851960e+01 +4.5265322161e+01 5.9186732601e+01 0.0000000000e+00 0.0000e+00 1.0000e+00
       23  1    4    4    0    0 -6.5930602062e+01 +1.8335911277e+02 +1.4455474310e+02 2.5918846554e+02 9.1187600000e+01 0.0000e+00 0.0000e+00
<mgrwt>
<rscale>  0 0.52117104E+03</rscale>
<asrwt>0</asrwt>
<pdfrwt beam="1">  1        1 0.65443230E-01 0.52117104E+03</pdfrwt>
<pdfrwt beam="2">  1       -1 0.24558912E-01 0.52117104E+03</pdfrwt>
<totfact> 0.80251906E+02</totfact>
</mgrwt>
</event>
<event>
 8      1 +1.4546000e-02 7.02191900e+02 7.81860800e-03 9.71349100e-02
       -2 -1    0    0    0  501 -0.0000000000e+00 +0.0000000000e+00 +4.5483529316e+01 4.5483529316e+01 0.0000000000e+00 0.0000e+00 1.0000e+00
        2 -1    0    0  501    0 +0.0000000000e+00 -0.0000000000e+00 -2.7101758094e+03 2.7101758094e+03 0.0000000000e+00 0.0000e+00 -1.0000e+00
     -556  2    1    2    0    0 -2.1181531807e+02 -1.8791673742e+02 -1.5504899686e+03 1.5887723701e+03 2.0000017992e+02 0.0000e+00 0.0000e+00
      556  2    1    2    0    0 +2.1181531807e+02 +1.8791673742e+02 -1.1142023115e+03 1.1668869687e+03 1.9999994383e+02 0.0000e+00 0.0000e+00
      -11  1    3    3    0    0 -1.4160512540e+02 -6.6107714467e+01 -4.6836754077e+02 4.9375134906e+02 0.0000000000e+00 0.0000e+00 -1.0000e+00
       23  1    3    3    0    0 -7.0210192672e+01 -1.2180902295e+02 -1.0821224278e+03 1.0950210210e+03 9.1187600000e+01 0.0000e+00 0.0000e+00
       11  1    4    4    0    0 +1.8358186407e+02 +1.1233200470e+02 -8.3498131142e+02 8.6227290953e+02 0.0000000000e+00 0.0000e+00 1.0000e+00
       23  1    4    4    0    0 +2.8233454003e+01 +7.5584732719e+01 -2.7922100007e+02 3.0461405913e+02 9.1187600000e+01 0.0000e+00 1.0000e+00
<mgrwt>
<rscale>  0 0.70219189E+03</rscale>
<asrwt>0</asrwt>
<pdfrwt beam="2">  1        2 0.41695018E+00 0.70219189E+03</pdfrwt>
<pdfrwt beam="1">  1       -2 0.69974651E-02 0.70219189E+03</pdfrwt>
<totfact> 0.33481506E+02</totfact>
</mgrwt>
</event>
<event>
 8      1 +1.4546000e-02 4.89204500e+02 7.81860800e-03 1.01663600e-01
       -1 -1    0    0    0  501 -0.0000000000e+00 +0.0000000000e+00 +1.9369497397e+02 1.9369497397e+02 0.0000000000e+00 0.0000e+00 1.0000e+00
        1 -1    0    0  501    0 +0.0000000000e+00 -0.0000000000e+00 -3.0888910077e+02 3.0888910077e+02 0.0000000000e+00 0.0000e+00 -1.0000e+00
     -556  2    1    2    0    0 +7.3531105264e+01 -1.9320565100e+01 +6.4178555676e+01 2.2338045100e+02 1.9999957801e+02 0.0000e+00 0.0000e+00
      556  2    1    2    0    0 -7.3531105264e+01 +1.9320565100e+01 -1.7937268248e+02 2.7920362374e+02 1.9999999153e+02 0.0000e+00 0.0000e+00
      -11  1    3    3    0    0 -3.1860480865e+01 -2.6398538113e+01 -3.3340832437e+01 5.3137408320e+01 0.0000000000e+00 0.0000e+00 -1.0000e+00
       23  1    3    3    0    0 +1.0539158613e+02 +7.0779730124e+00 +9.7519388113e+01 1.7024304268e+02 9.1187600000e+01 0.0000e+00 0.0000e+00
       11  1    4    4    0    0 -1.5087218760e+01 +8.2524788918e+01 -4.4214994478e+01 9.4831063964e+01 0.0000000000e+00 0.0000e+00 1.0000e+00
       23  1    4    4    0    0 -5.8443886504e+01 -6.3204223818e+01 -1.3515768800e+02 1.8437255978e+02 9.1187600000e+01 0.0000e+00 0.0000e+00
<mgrwt>
<rscale>  0 0.48920452E+03</rscale>
<asrwt>0</asrwt>
<pdfrwt beam="2">  1        1 0.47521400E-01 0.48920452E+03</pdfrwt>
<pdfrwt beam="1">  1       -1 0.29799227E-01 0.48920452E+03</pdfrwt>
<totfact> 0.87492036E+02</totfact>
</mgrwt>
</event>
<event>
 8      1 +1.4546000e-02 6.39894600e+02 7.81860800e-03 9.82592800e-02
       -1 -1    0    0    0  501 -0.0000000000e+00 +0.0000000000e+00 +1.4634313530e+02 1.4634313530e+02 0.0000000000e+00 0.0000e+00 1.0000e+00
        1 -1    0    0  501    0 +0.0000000000e+00 -0.0000000000e+00 -6.9949497074e+02 6.9949497074e+02 0.0000000000e+00 0.0000e+00 -1.0000e+00
     -556  2    1    2    0    0 +7.1096039861e+01 -2.1531591121e+02 -1.3825011326e+02 3.3245810910e+02 1.9999927996e+02 0.0000e+00 0.0000e+00
      556  2    1    2    0    0 -7.1096039861e+01 +2.1531591121e+02 -4.1490172217e+02 5.1337999694e+02 1.9999998423e+02 0.0000e+00 0.0000e+00
      -11  1    3    3    0    0 +7.3188665593e+01 -3.7261929553e+01 +1.1000222348e+01 8.2861553552e+01 0.0000000000e+00 0.0000e+00 -1.0000e+00
       23  1    3    3    0    0 -2.0926257329e+00 -1.7805398166e+02 -1.4925033561e+02 2.4959655555e+02 9.1187600000e+01 0.0000e+00 0.0000e+00
       11  1    4    4    0    0 -6.8423779321e+01 +1.5406160468e+02 -3.4264752731e+02 3.8186924410e+02 0.0000000000e+00 0.0000e+00 1.0000e+00
       23  1    4    4    0    0 -2.6722605395e+00 +6.1254306536e+01 -7.2254194859e+01 1.3151075285e+02 9.1187600000e+01 0.0000e+00 0.0000e+00
<mgrwt>
<rscale>  0 0.63989464E+03</rscale>
<asrwt>0</asrwt>
<pdfrwt beam="2">  1        1 0.10761461E+00 0.63989464E+03</pdfrwt>
<pdfrwt beam="1">  1       -1 0.22514328E-01 0.63989464E+03</pdfrwt>
<totfact> 0.46172928E+02</totfact>
</mgrwt>
</event>
<event>
 8      1 +1.4546000e-02 6.51371000e+02 7.81860800e-03 9.80421000e-02
        1 -1    0    0  501    0 +0.0000000000e+00 +0.0000000000e+00 +3.6007883671e+02 3.6007883671e+02 0.0000000000e+00 0.0000e+00 -1.0000e+00
       -1 -1    0    0    0  501 -0.0000000000e+00 -0.0000000000e+00 -2.9457731297e+02 2.9457731297e+02 0.0000000000e+00 0.0000e+00 1.0000e+00
     -556  2    1    2    0    0 -1.7557286930e+02 +1.5490312393e+02 -7.3851259329e+01 3.1666211718e+02 2.0000019429e+02 0.0000e+00 0.0000e+00
      556  2    1    2    0    0 +1.7557286930e+02 -1.5490312393e+02 +1.3935278307e+02 3.3799403251e+02 1.9999989407e+02 0.0000e+00 0.0000e+00
      -11  1    3    3    0    0 -2.2964897339e+01 -1.9953031654e+01 +3.3435122884e+01 4.5204174854e+01 0.0000000000e+00 0.0000e+00 -1.0000e+00
       23  1    3    3    0    0 -1.5260797196e+02 +1.7485615558e+02 -1.0728638221e+02 2.7145794233e+02 9.1187600000e+01 0.0000e+00 0.0000e+00
       11  1    4    4    0    0 +7.3820879426e+00 -4.1282060908e+01 -3.5542190272e+01 5.4972275417e+01 0.0000000000e+00 0.0000e+00 1.0000e+00
       23  1    4    4    0    0 +1.6819078136e+02 -1.1362106302e+02 +1.7489497334e+02 2.8302175709e+02 9.1187600000e+01 0.0000e+00 0.0000e+00
<mgrwt>
<rscale>  0 0.65137103E+03</rscale>
<asrwt>0</asrwt>
<pdfrwt beam="1">  1        1 0.55396744E-01 0.65137103E+03</pdfrwt>
<pdfrwt beam="2">  1       -1 0.45319587E-01 0.65137103E+03</pdfrwt>
<totfact> 0.33784228E+02</totfact>
</mgrwt>
</event>
<event>
 8      1 +1.4546000e-02 4.52807700e+02 7.81860800e-03 1.02688800e-01
        2 -1    0    0  501    0 +0.0000000000e+00 +0.0000000000e+00 +7.5938211121e+02 7.5938211121e+02 0.0000000000e+00 0.0000e+00 -1.0000e+00
       -2 -1    0    0    0  501 -0.0000000000e+00 -0.0000000000e+00 -6.7500528078e+01 6.7500528078e+01 0.0000000000e+00 0.0000e+00 1.0000e+00
     -556  2    1    2    0    0 -6.8160110962e+01 -7.9910387321e+00 +1.9815944818e+02 2.8978744192e+02 1.9999984292e+02 0.0000e+00 0.0000e+00
      556  2    1    2    0    0 +6.8160110962e+01 +7.9910387321e+00 +4.9372213496e+02 5.3709519737e+02 2.0000011767e+02 0.0000e+00 0.0000e+00
      -11  1    3    3    0    0 +2.0317916543e+01 +6.1645189245e+01 +7.8620438116e+01 1.0195155898e+02 0.0000000000e+00 0.0000e+00 -1.0000e+00
       23  1    3    3    0    0 -8.8478027505e+01 -6.9636227977e+01 +1.1953901006e+02 1.8783588294e+02 9.1187600000e+01 0.0000e+00 0.0000e+00
       11  1    4    4    0    0 +6.6759593395e+01 +7.3377357957e+01 +2.2729798143e+02 2.4800292807e+02 0.0000000000e+00 0.0000e+00 1.0000e+00
       23  1    4    4    0    0 +1.4005175670e+00 -6.5386319225e+01 +2.6642415353e+02 2.8909226930e+02 9.1187600000e+01 0.0000e+00 0.0000e+00
<mgrwt>
<rscale>  0 0.45280766E+03</rscale>
<asrwt>0</asrwt>
<pdfrwt beam="1">  1        2 0.11682801E+00 0.45280766E+03</pdfrwt>
<pdfrwt beam="2">  1       -2 0.10384697E-01 0.45280766E+03</pdfrwt>
<totfact> 0.23779033E+03</totfact>
</mgrwt>
</event>
<event>
 8      1 +1.4546000e-02 5.36642500e+02 7.81860800e-03 1.00463400e-01
       -2 -1    0    0    0  501 -0.0000000000e+00 +0.0000000000e+00 +8.4464299136e+01 8.4464299136e+01 0.0000000000e+00 0.0000e+00 1.0000e+00
        2 -1    0    0  501    0 +0.0000000000e+00 -0.0000000000e+00 -8.5238732288e+02 8.5238732288e+02 0.0000000000e+00 0.0000e+00 -1.0000e+00
     -556  2    1    2    0    0 -1.5862640584e+02 +2.0100870997e+01 -2.4397412592e+02 3.5368027239e+02 1.9999994828e+02 0.0000e+00 0.0000e+00
      556  2    1    2    0    0 +1.5862640584e+02 -2.0100870997e+01 -5.2394889782e+02 5.8317134963e+02 1.9999998464e+02 0.0000e+00 0.0000e+00
      -11  1    3    3    0    0 +1.3818880273e+01 -4.7472438035e+01 -5.2383958818e+01 7.2032443846e+01 0.0000000000e+00 0.0000e+00 -1.0000e+00
       23  1    3    3    0    0 -1.7244528611e+02 +6.7573309032e+01 -1.9159016711e+02 2.8164782854e+02 9.1187600000e+01 0.0000e+00 0.0000e+00
       11  1    4    4    0    0 +6.1412275188e+01 -5.5365296824e+01 -3.5798089967e+02 3.6740591744e+02 0.0000000000e+00 0.0000e+00 1.0000e+00
       23  1    4    4    0    0 +9.7214130652e+01 +3.5264425827e+01 -1.6596799815e+02 2.1576543220e+02 9.1187600000e+01 0.0000e+00 0.0000e+00
<mgrwt>
<rscale>  0 0.53664252E+03</rscale>
<asrwt>0</asrwt>
<pdfrwt beam="2">  1        2 0.13113652E+00 0.53664252E+03</pdfrwt>
<pdfrwt beam="1">  1       -2 0.12994507E-01 0.53664252E+03</pdfrwt>
<totfact> 0.14164793E+03</totfact>
</mgrwt>
</event>
<event>
 8      1 +1.4546000e-02 8.39608500e+02 7.81860800e-03 9.50439100e-02
       -2 -1    0    0    0  501 -0.0000000000e+00 +0.0000000000e+00 +5.8147007649e+02 5.8147007649e+02 0.0000000000e+00 0.0000e+00 1.0000e+00
        2 -1    0    0  501    0 +0.0000000000e+00 -0.0000000000e+00 -3.0308632232e+02 3.0308632232e+02 0.0000000000e+00 0.0000e+00 -1.0000e+00
     -556  2    1    2    0    0 +2.8561632094e+02 -1.2103818485e+01 +3.8517003098e+02 5.1969122942e+02 1.9999958990e+02 0.0000e+00 0.0000e+00
      556  2    1    2    0    0 -2.8561632094e+02 +1.2103818485e+01 -1.0678627681e+02 3.6486516939e+02 2.0000024428e+02 0.0000e+00 0.0000e+00
      -11  1    3    3    0    0 +1.5770079231e+02 +2.5650546803e+00 +8.1625459851e+01 1.7759176529e+02 0.0000000000e+00 0.0000e+00 -1.0000e+00
       23  1    3    3    0    0 +1.2791552863e+02 -1.4668873165e+01 +3.0354457113e+02 3.4209946413e+02 9.1187600000e+01 0.0000e+00 0.0000e+00
       11  1    4    4    0    0 -2.2346448406e+02 +3.8511156618e+01 -1.0850637727e+02 2.5138241531e+02 0.0000000000e+00 0.0000e+00 1.0000e+00
       23  1    4    4    0    0 -6.2151836881e+01 -2.6407338133e+01 +1.7201004628e+00 1.1348275408e+02 9.1187600000e+01 0.0000e+00 -1.0000e+00
<mgrwt>
<rscale>  0 0.83960854E+03</rscale>
<asrwt>0</asrwt>
<pdfrwt beam="2">  1        2 0.46628665E-01 0.83960854E+03</pdfrwt>
<pdfrwt beam="1">  1       -2 0.89456935E-01 0.83960854E+03</pdfrwt>
<totfact> 0.11703033E+02</totfact>
</mgrwt>
</event>
<event>
 8      1 +1.4546000e-02 4.92840300e+02 7.81860800e-03 1.01566500e-01
       -2 -1    0    0    0  501 -0.0000000000e+00 +0.0000000000e+00 +6.8776986982e+01 6.8776986982e+01 0.0000000000e+00 0.0000e+00 -1.0000e+00
        2 -1    0    0  501    0 +0.0000000000e+00 -0.0000000000e+00 -8.8289558503e+02 8.8289558503e+02 0.0000000000e+00 0.0000e+00 1.0000e+00
     -556  2    1    2    0    0 -1.6403141235e+01 +3.2182733896e+00 -1.3096435110e+02 2.3964788132e+02 2.0000006358e+02 0.0000e+00 0.0000e+00
      556  2    1    2    0    0 +1.6403141235e+01 -3.2182733896e+00 -6.8315424694e+02 7.1202469070e+02 2.0000003679e+02 0.0000e+00 0.0000e+00
      -11  1    3    3    0    0 -2.9988570953e+00 +7.5517574452e+01 -1.9734485507e+01 7.8111120292e+01 0.0000000000e+00 0.0000e+00 -1.0000e+00
       23  1    3    3    0    0 -1.3404284139e+01 -7.2299301063e+01 -1.1122986560e+02 1.6153676102e+02 9.1187600000e+01 0.0000e+00 0.0000e+00
       11  1    4    4    0    0 -5.8830803862e+01 +3.6144398336e+01 -1.6046362191e+02 1.7468845117e+02 0.0000000000e+00 0.0000e+00 1.0000e+00
       23  1    4    4    0    0 +7.5233945097e+01 -3.9362671726e+01 -5.2269062503e+02 5.3733623953e+02 9.1187600000e+01 0.0000e+00 -1.0000e+00
<mgrwt>
<rscale>  0 0.49284033E+03</rscale>
<asrwt>0</asrwt>
<pdfrwt beam="2">  1        2 0.13583009E+00 0.49284033E+03</pdfrwt>
<pdfrwt beam="1">  1       -2 0.10581075E-01 0.49284033E+03</pdfrwt>
<totfact> 0.18920101E+03</totfact>
</mgrwt>
</event>
<event>
 8      1 +1.4546000e-02 4.98780500e+02 7.81860800e-03 1.01409800e-01
       -1 -1    0    0    0  501 -0.0000000000e+00 +0.0000000000e+00 +6.2696669693e+01 6.2696669693e+01 0.0000000000e+00 0.0000e+00 1.0000e+00
        1 -1    0    0  501    0 +0.0000000000e+00 -0.0000000000e+00 -9.9200630381e+02 9.9200630381e+02 0.0000000000e+00 0.0000e+00 -1.0000e+00
     -556  2    1    2    0    0 +3.6541775988e+01 +1.4251470437e+02 -5.1423443331e+02 5.7103659213e+02 1.9999998698e+02 0.0000e+00 0.0000e+00
      556  2    1    2    0    0 -3.6541775988e+01 -1.4251470437e+02 -4.1507520080e+02 4.8366638137e+02 2.0000000948e+02 0.0000e+00 0.0000e+00
      -11  1    3    3    0    0 -5.4200460013e+01 +9.1321532357e+01 -1.7593323574e+02 2.0549894301e+02 0.0000000000e+00 0.0000e+00 -1.0000e+00
       23  1    3    3    0    0 +9.0742236001e+01 +5.1193172017e+01 -3.3830119757e+02 3.6553764912e+02 9.1187600000e+01 0.0000e+00 0.0000e+00
       11  1    4    4    0    0 +1.7158312888e+01 -1.0469962910e+02 -3.1777519057e+02 3.3501864392e+02 0.0000000000e+00 0.0000e+00 1.0000e+00
       23  1    4    4    0    0 -5.3700088877e+01 -3.7815075274e+01 -9.7300010235e+01 1.4864773745e+02 9.1187600000e+01 0.0000e+00 0.0000e+00
<mgrwt>
<rscale>  0 0.49878048E+03</rscale>
<asrwt>0</asrwt>
<pdfrwt beam="2">  1        1 0.15261634E+00 0.49878048E+03</pdfrwt>
<pdfrwt beam="1">  1       -1 0.96456426E-02 0.49878048E+03</pdfrwt>
<totfact> 0.10398692E+03</totfact>
</mgrwt>
</event>
<event>
 8      1 +1.4546000e-02 4.38259700e+02 7.81860800e-03 1.03128200e-01
       -1 -1    0    0    0  501 -0.0000000000e+00 +0.0000000000e+00 +2.9467351589e+01 2.9467351589e+01 0.0000000000e+00 0.0000e+00 1.0000e+00
        1 -1    0    0  501    0 +0.0000000000e+00 -0.0000000000e+00 -1.6295283872e+03 1.6295283872e+03 0.0000000000e+00 0.0000e+00 -1.0000e+00
     -556  2    1    2    0    0 +6.0695405276e+01 +4.4384187110e+01 -9.8408045966e+02 1.0070095712e+03 2.0000009275e+02 0.0000e+00 0.0000e+00
      556  2    1    2    0    0 -6.0695405276e+01 -4.4384187110e+01 -6.1598057595e+02 6.5198616759e+02 2.0000001125e+02 0.0000e+00 0.0000e+00
      -11  1    3    3    0    0 +6.8010907693e+01 +1.7345427894e+01 -1.3105283409e+02 1.4866469909e+02 0.0000000000e+00 0.0000e+00 -1.0000e+00
       23  1    3    3    0    0 -7.3155024162e+00 +2.7038759216e+01 -8.5302762557e+02 8.5834487210e+02 9.1187600000e+01 0.0000e+00 0.0000e+00
       11  1    4    4    0    0 -2.1145509994e+01 +6.3507631586e+01 -1.8754325964e+02 1.9913017376e+02 0.0000000000e+00 0.0000e+00 1.0000e+00
       23  1    4    4    0    0 -3.9549895282e+01 -1.0789181870e+02 -4.2843731631e+02 4.5285599384e+02 9.1187600000e+01 0.0000e+00 1.0000e+00
<mgrwt>
<rscale>  0 0.43825968E+03</rscale>
<asrwt>0</asrwt>
<pdfrwt beam="2">  1        1 0.25069664E+00 0.43825968E+03</pdfrwt>
<pdfrwt beam="1">  1       -1 0.45334393E-02 0.43825968E+03</pdfrwt>
<totfact> 0.11879870E+03</totfact>
</mgrwt>
</event>
<event>
 8      1 +1.4546000e-02 9.34968300e+02 7.81860800e-03 9.38289500e-02
        1 -1    0    0  501    0 +0.0000000000e+00 +0.0000000000e+00 +7.2443682660e+02 7.2443682660e+02 0.0000000000e+00 0.0000e+00 -1.0000e+00
       -1 -1    0    0    0  501 -0.0000000000e+00 -0.0000000000e+00 -3.0167078583e+02 3.0167078583e+02 0.0000000000e+00 0.0000e+00 1.0000e+00
     -556  2    1    2    0    0 +1.6870468994e+02 +6.5838918072e+01 -2.0759720870e+02 3.4043007668e+02 2.0000000127e+02 0.0000e+00 0.0000e+00
      556  2    1    2    0    0 -1.6870468994e+02 -6.5838918072e+01 +6.3036324947e+02 6.8567753575e+02 1.9999955304e+02 0.0000e+00 0.0000e+00
      -11  1    3    3    0    0 +6.4761313308e+01 +1.0276037270e+02 -6.2400956892e+01 1.3655622036e+02 0.0000000000e+00 0.0000e+00 -1.0000e+00
       23  1    3    3    0    0 +1.0394337663e+02 -3.6921454625e+01 -1.4519625181e+02 2.0387385632e+02 9.1187600000e+01 0.0000e+00 0.0000e+00
       11  1    4    4    0    0 -1.0064676285e+02 +4.3634138198e+01 +3.0244453143e+02 3.2172411082e+02 0.0000000000e+00 0.0000e+00 1.0000e+00
       23  1    4    4    0    0 -6.8057927085e+01 -1.0947305627e+02 +3.2791871804e+02 3.6395342493e+02 9.1187600000e+01 0.0000e+00 0.0000e+00
<mgrwt>
<rscale>  0 0.93496829E+03</rscale>
<asrwt>0</asrwt>
<pdfrwt beam="1">  1        1 0.11145182E+00 0.93496829E+03</pdfrwt>
<pdfrwt beam="2">  1       -1 0.46410890E-01 0.93496829E+03</pdfrwt>
<totfact> 0.12013244E+02</totfact>
</mgrwt>
</event>
</LesHouchesEvents>
